Title: // Class-D RF Power Amplifier - 300W, 13.56 MHz
Date: 9:31:50 PM, Sat Jun 27, 2026
Plotname: Transient Analysis `tran': time = (0 s -> 1 us)
Flags: real
No. Variables:       13
No. Points:     1626
Variables:	0	time	s
		1	L1:i	A plot=0 grid=0
		2	M1:vgs	V plot=0 grid=0
		3	M1:vds	V plot=0 grid=0
		4	M1:id	A plot=0 grid=0
		5	M2:vgs	V plot=0 grid=0
		6	M2:vds	V plot=0 grid=0
		7	M2:id	A plot=0 grid=0
		8	Vdd:i	A plot=0 grid=0
		9	mid	V plot=0 grid=0
		10	lc_out	V plot=0 grid=0
		11	rload	V plot=0 grid=0
		12	vdd	V plot=0 grid=0
Values:
 0	0	0	-36.24
	36.26	1e-14	0
	36.24	1e-14	-3.627e-11
	36.24	36.24	0
	72.5
 1	3.27411390684564e-11	7.80450910314949e-05	-35.6456700161367
	35.5446844211251	1e-14	0
	36.9553155788749	1e-14	19.2983781171314
	36.9553155788749	36.2402044517591	0.000199014982130311
	72.5
 2	6.25012480115345e-11	0.000213447192391317	-35.1054509977244
	34.8944990818142	1e-14	0
	37.6055009181858	1e-14	19.2983781171325
	37.6055009181858	36.2405632424616	0.000544290340597859
	72.5
 3	1.22021465897691e-10	0.000613141398034461	-34.025007466494
	33.5941338975984	1e-14	0
	38.9058661024016	1e-14	19.2983781171329
	38.9058661024016	36.2416348017637	0.00156351056498787
	72.5
 4	2.41061901670003e-10	0.00218541697037877	-31.8640661885746
	30.9934577446253	1e-14	0
	41.5065422553747	1e-14	19.2983781171371
	41.5065422553747	36.2459985104388	0.00557281327446585
	72.5
 5	4.79142773214628e-10	0.00841652118442219	-27.5417545553557
	25.7925345160592	1e-14	0
	46.7074654839408	1e-14	19.2983781171405
	46.7074654839408	36.2645730588186	0.0214621290202766
	72.5
 6	9.55304516303877e-10	0.0331766141906211	-18.8937231191099
	15.394096228735	1e-14	0
	57.105903771265	1e-14	19.2983781171527
	57.105903771265	36.3487805085809	0.0846003661860837
	72.5
 7	1.47765225815194e-09	0.0790841920001916	-9.39833804879624
	3.99557162512622	1e-14	0
	68.5044283748738	1e-14	19.2983781171623
	68.5044283748738	36.5282269369015	0.201664689600488
	72.5
 8	1.60823919361395e-09	0.0936092581220919	-7.02266914625555
	1.14776310918629	1e-14	0
	71.3522368908137	1e-14	19.298378117167
	71.3522368908137	36.5892568219228	0.238703608211334
	72.5
 9	1.80411959680698e-09	0.117666128135237	-0.335216127720926
	3.12220423093659	1e-14	0
	75.6222042309366	1e-14	19.2983781171693
	75.6222042309366	36.6946281253977	0.300048626744854
	72.5
 10	1.90205979840349e-09	0.130712883904184	3.58239193613954
	5.25555101257852	0.0352615649727671	0
	77.7555510125785	1e-14	19.3336396821461
	77.7555510125785	36.7537763850675	0.333317853955668
	72.5
 11	2e-09	0.144128461356675	7.5
	5.5039336659562	83.305906022639	0
	78.0039336659562	1e-14	102.604284139811
	78.0039336659562	36.816622295616	0.367527576459522
	72.5
 12	2.0226856839874e-09	0.147176181272539	7.5
	4.63662428745872	82.6210785373774	0
	77.1366242874587	1e-14	82.621078537382
	77.1366242874587	36.8314977948883	0.375299262244974
	72.5
 13	2.06805705196219e-09	0.153143459319245	7.5
	2.97155921916637	75.9315342941267	0
	75.4715592191664	1e-14	75.9775289088041
	75.4715592191664	36.8612100059535	0.390515821264075
	72.5
 14	2.11175508955786e-09	0.158670155841899	7.5
	1.66739186199919	52.9772159625809	0
	74.1673918619992	1e-14	52.9346100047752
	74.1673918619992	36.889798447063	0.404608897396842
	72.5
 15	2.18326540787646e-09	0.167409258542916	7.5
	0.487102904818855	18.1478692759816	0
	72.9871029048189	1e-14	18.2039589798595
	72.9871029048189	36.9368895873759	0.426893609284435
	72.5
 16	2.20571892665548e-09	0.17010075620107	7.5
	0.326826042182375	12.4164066845575	0
	72.8268260421824	1e-14	12.3656163051885
	72.8268260421824	36.9518149143342	0.433756928312728
	72.5
 17	2.25062596421351e-09	0.175454289230514	7.5
	0.138624852704893	5.38552937829208	0
	72.6386248527049	1e-14	5.43477348820736
	72.6386248527049	36.9819747782439	0.44740843753781
	72.5
 18	2.32628037468279e-09	0.184424618650327	7.5
	0.0226508511226484	0.891925629003428	0
	72.5226508511226	1e-14	0.842748042314392
	72.5226508511226	37.0338134018985	0.470282777558334
	72.5
 19	2.3524516652498e-09	0.187519163544922	7.5
	0.0121226999060866	0.477936877248157	0
	72.5121226999061	1e-14	0.527109448317554
	72.5121226999061	37.0520600752078	0.47817386703955
	72.5
 20	2.40479424638383e-09	0.193701552832626	7.5
	0.00117566365914001	0.0464089257861488	0
	72.5011756636591	1e-14	-0.00277888247414343
	72.5011756636591	37.0890529086117	0.493938959723196
	72.5
 21	2.50947940865189e-09	0.206043613459484	7.50491573958665
	0.00491573958665015	0.19420219667216	0
	72.4950842604133	1e-14	-0.145022383523245
	72.4950842604133	37.1650436606561	0.525411214321685
	72.5
 22	2.71884973318801e-09	0.230642854281327	7.50571589249691
	0.00571589249690874	0.225837577165718	0
	72.4942841075031	1e-14	-0.275116694785581
	72.4942841075031	37.3250368178065	0.588139278417383
	72.5
 23	3.13759038226024e-09	0.279482277623147	7.50688593375889
	0.00688593375889468	0.272109399157219	0
	72.4931140662411	1e-14	-0.222910044359839
	72.4931140662411	37.6768221652449	0.712679807939025
	72.5
 24	3.9750716804047e-09	0.37550668421133	7.50936239273912
	0.00936239273912065	0.370094486249215	0
	72.4906376072609	1e-14	-0.419275448747597
	72.4906376072609	38.505238663776	0.957542044738891
	72.5
 25	5.65003427669362e-09	0.559257453099518	7.51397443238807
	0.0139744323880677	0.552751554073641	0
	72.4860255676119	1e-14	-0.503566402380584
	72.4860255676119	40.6394360673643	1.42610650540377
	72.5
 26	7.85949791446653e-09	0.780067665560634	7.51959264503695
	0.0195926450369512	0.775563956820712	0
	72.480407354963	1e-14	-0.824748827352184
	72.480407354963	44.3505767355608	1.98917254717962
	72.5
 27	1.11248949137599e-08	1.04784099535093	7.52633507976483
	0.0263350797648343	1.04340626090517	0
	72.4736649202352	1e-14	-0.994219527568847
	72.4736649202352	51.3832364460186	2.67199453814488
	72.5
 28	1.4797837382627e-08	1.24784884848695	7.53143377773024
	0.0314337777302427	1.24627335904132	0
	72.4685662222698	1e-14	-1.29545973077915
	72.4685662222698	60.8634019212805	3.18201456364173
	72.5
 29	1.85659765587366e-08	1.32733665319753	7.53345061546658
	0.0334506154665775	1.32659589175865	0
	72.4665493845334	1e-14	-1.27740829287801
	72.4665493845334	71.3891355835548	3.38470846565371
	72.5
 30	2.23802058304485e-08	1.27461500330818	7.53219979599426
	0.0321997959942593	1.27677567324286	0
	72.4678002040057	1e-14	-1.32596326935809
	72.4678002040057	81.8126104527449	3.25026825843585
	72.5
 31	2.48776029152243e-08	1.17079117643734	7.52959660097699
	0.029596600976987	1.17314377114578	0
	72.470403399023	1e-14	-1.12395617447661
	72.470403399023	88.0448280605957	2.98551749991523
	72.5
 32	2.7375e-08	1.01847082716961	7.52581369677647
	0.0258136967764671	1.02267709352582	0
	72.4741863032235	1e-14	-1.07186440249758
	72.4741863032235	93.4728543035994	2.59710060928251
	72.5
 33	2.74071047957775e-08	1.01616324697395	6.73221292905299
	0.516404760154103	15.2365569997763	0
	71.9835952398459	1e-14	-34.5309501858516
	71.9835952398459	93.5363821305276	2.59121627978358
	72.5
 34	2.74713143873326e-08	1.01142729693689	5.16615905354816
	1.51873454685149	13.7991645954245	0
	70.9812654531485	1e-14	-33.1001665779925
	70.9812654531485	93.6628062671516	2.57913960718908
	72.5
 35	2.75997335704427e-08	1.00113493034518	2.4854680939348
	3.97481091164256	1e-14	0
	68.5251890883574	1e-14	-19.2957542517717
	68.5251890883574	93.9115092399872	2.5528940723802
	72.5
 36	2.77353365261338e-08	0.988914078051213	0.0862798616468439
	6.99974090700015	1e-14	0
	65.5002590929999	1e-14	-19.3010019825737
	65.5002590929999	94.167427478881	2.52173089903059
	72.5
 37	2.79380463093694e-08	0.967885436228134	-3.50176885736993
	11.5200835174044	1e-14	0
	60.9799164825956	1e-14	-19.2957542517791
	60.9799164825956	94.5357857245459	2.46810786238174
	72.5
 38	2.81162574702304e-08	0.946674724148214	-6.65792014384978
	15.4923786653667	1e-14	0
	57.0076213346333	1e-14	-19.3010019825822
	57.0076213346333	94.8446728648261	2.41402054657795
	72.5
 39	2.84726797919525e-08	0.896655215235757	-12.9760862252953
	23.4311054528055	1e-14	0
	49.0688945471945	1e-14	-19.2957542517911
	49.0688945471945	95.4160634752856	2.28647079885118
	72.5
 40	2.89238398959763e-08	0.818926167082167	-20.9869449114632
	33.4666509275873	1e-14	0
	39.0333490724127	1e-14	-19.3010019826001
	39.0333490724127	96.0412606523958	2.08826172605952
	72.5
 41	2.9375e-08	0.725271883392446	-29.015661384736
	43.484338615264	1e-14	0
	29.015661384736	1e-14	-19.2957542518111
	29.015661384736	96.5435917535459	1.84944330265074
	72.5
 42	2.93969917165138e-08	0.720319090396855	-29.0083442269467
	43.4916557730533	1e-14	0
	29.0083442269467	1e-14	-4.35029789969121e-11
	29.0083442269467	96.5646664999933	1.83681368051198
	72.5
 43	2.942772657971e-08	0.713395223371425	-28.9981671683105
	43.5018328316895	1e-14	0
	28.9981671683105	1e-14	-4.35100844242697e-11
	28.9981671683105	96.5938883127977	1.81915781959713
	72.5
 44	2.94800347663028e-08	0.701602224584989	-28.9810727749976
	43.5189272250024	1e-14	0
	28.9810727749976	1e-14	-4.35278479926637e-11
	28.9810727749976	96.6425565388029	1.78908567269172
	72.5
 45	2.95846511394883e-08	0.677982740789799	-28.9477396152231
	43.5522603847769	1e-14	0
	28.9477396152231	1e-14	-4.35622603847769e-11
	28.9477396152231	96.7358664036132	1.72885598901399
	72.5
 46	2.97938838858593e-08	0.630618348958876	-28.8845034821824
	43.6154965178176	1e-14	0
	28.8845034821824	1e-14	-4.36254965178176e-11
	28.8845034821824	96.9063661405212	1.60807678984513
	72.5
 47	3.02123493786012e-08	0.53545613763	-28.771805973451
	43.728194026549	1e-14	0
	28.771805973451	1e-14	-4.3738194026549e-11
	28.771805973451	97.1828109427009	1.3654131509565
	72.5
 48	3.10492803640852e-08	0.34394483377155	-28.6018231811132
	43.8981768188868	1e-14	0
	28.6018231811132	1e-14	-4.39081768188868e-11
	28.6018231811132	97.4774336302349	0.877059326117453
	72.5
 49	3.27231423350531e-08	-0.0394712110473613	-28.4841174285304
	44.0158825714696	1e-14	0
	28.4841174285304	1e-14	-4.40258825714696e-11
	28.4841174285304	97.0419001821603	-0.100651588170771
	72.5
 50	3.47990711675265e-08	-0.504690910411441	-28.7450144613206
	43.7549855386794	1e-14	0
	28.7450144613206	1e-14	-4.37649855386794e-11
	28.7450144613206	94.6538433131689	-1.28696182154917
	72.5
 51	3.6875e-08	-0.943377196508025	-29.4392867332436
	43.0607132667564	1e-14	0
	29.4392867332436	1e-14	-4.30707132667564e-11
	29.4392867332436	90.3372290979424	-2.40561185109546
	72.5
 52	3.70079384777931e-08	-0.970114654496341	-29.6469862875248
	42.8530137124752	1e-14	0.664692388965498
	29.6469862875248	1e-14	-4.28630137124752e-11
	29.6469862875248	89.9946537599583	-2.47379236896567
	72.5
 53	3.72119191390807e-08	-1.01084998910565	-29.9675993268326
	42.5324006731674	1e-14	1.68459569540361
	29.9675993268326	1e-14	-4.25424006731674e-11
	29.9675993268326	89.4609079354394	-2.5776674722194
	72.5
 54	3.75066247401164e-08	-1.06865969834858	-30.4375195112122
	42.0624804887878	1e-14	3.1581237005818
	30.4375195112122	1e-14	-4.20724804887878e-11
	30.4375195112122	88.6615323765501	-2.72508223078889
	72.5
 55	3.76282148024516e-08	-1.09214758966261	-30.6208674819432
	41.8791325180568	1e-14	3.7660740122581
	30.6208674819432	0.456356917393	-4.18891325180568e-11
	30.6208674819432	88.3221353889719	-2.78497635363966
	72.5
 56	3.78713949271221e-08	-1.13880009028873	-30.1989419503591
	42.3010580496409	1e-14	4.9819746356107
	30.1989419503591	14.111596607794	-4.23110580496409e-11
	30.1989419503591	87.626020304988	-2.90394023023626
	72.5
 57	3.80479934717556e-08	-1.17295436569449	-28.4681794893135
	44.0318205106865	1e-14	5.86496735877778
	28.4681794893135	35.4595343995851	-4.40418205106865e-11
	28.4681794893135	87.1046157617709	-2.99103363252096
	72.5
 58	3.82010364581819e-08	-1.20354382828725	-25.3273791742741
	47.1726208257259	1e-14	6.63018229090976
	25.3273791742741	60.5999652370665	-4.71826208257259e-11
	25.3273791742741	86.6396909504106	-3.06903676213249
	72.5
 59	3.83388398303593e-08	-1.23262848000064	-20.8608913041168
	51.6391086958832	1e-14	7.3191991517967
	20.8608913041168	86.9996609492799	-5.16491086958832e-11
	20.8608913041168	86.2083838552572	-3.14320262400164
	72.5
 60	3.84798314888843e-08	-1.26472152191143	-14.5002698716342
	57.9997301283658	1e-14	8.02415744442169
	14.5002698716342	115.656244984373	-5.80097301283658e-11
	14.5002698716342	85.7519662593559	-3.22503988087415
	72.5
 61	3.86274020719364e-08	-1.30176204020682	-5.87940460074265
	66.6205953992574	1e-14	8.76201035968214
	5.87940460074265	144.677849578426	-6.66305953992573e-11
	5.87940460074265	85.2546007295587	-3.31949320252739
	72.5
 62	3.86893015539523e-08	-1.31847374145199	-2.3996691575218
	70.1003308424782	1e-14	9.0715077697616
	2.3996691575218	106.026582720706	-7.01103308424782e-11
	2.3996691575218	85.0394420215492	-3.36210804070257
	72.5
 63	3.87025439197475e-08	-1.32213247443376	-1.83229114112661
	70.6677088588734	1e-14	9.13771959873767
	1.83229114112661	86.9528763761717	-7.06777088588734e-11
	1.83229114112661	84.9929123870927	-3.37143780980608
	72.5
 64	3.8729028651338e-08	-1.32950469113176	-1.01916560933635
	71.4808343906636	1e-14	9.27014325668981
	1.01916560933635	53.4561535548669	-7.14908343906636e-11
	1.01916560933635	84.8994027040817	-3.39023696238599
	72.5
 65	3.87557602453012e-08	-1.33699450207081	-0.546613395840018
	71.95338660416	1e-14	9.40380122650592
	0.546613395840018	30.5429802604565	-7.196338660416e-11
	0.546613395840018	84.8044741396595	-3.40933598028057
	72.5
 66	3.87854546661221e-08	-1.34534121643052	-0.277319310901886
	72.2226806890981	1e-14	9.55227333061035
	0.277319310901886	16.2312859956993	-7.22326806890981e-11
	0.277319310901886	84.6984555439911	-3.43062010189781
	72.5
 67	3.88133043963606e-08	-1.35317781953304	-0.159373175607939
	72.3406268243921	1e-14	9.69152198180294
	0.159373175607939	9.62932014926657	-7.2350626824392e-11
	0.159373175607939	84.5985221771487	-3.45060343980924
	72.5
 68	3.88442078161719e-08	-1.36187193258576	-0.100043178469234
	72.3999568215308	1e-14	9.84603908085935
	0.100043178469234	6.22307198418662	-7.24099568215308e-11
	0.100043178469234	84.4870922715257	-3.4727734280937
	72.5
 69	3.8875e-08	-1.37052761061873	-0.0753327544982072
	72.4246672455018	1e-14	9.99999999999999
	0.0753327544982072	4.80858633559355	-7.24346672455018e-11
	0.0753327544982072	84.3755133254925	-3.49484540707777
	72.5
 70	3.88980375165868e-08	-1.37699533204318	-0.0535548986287791
	72.4464451013712	1e-14	10
	0.0535548986287791	3.42349278067207	-7.24564451013712e-11
	0.0535548986287791	84.2915258426646	-3.51133809671011
	72.5
 71	3.89260174653583e-08	-1.38484672907172	-0.0348579375989922
	72.465142062401	1e-14	10
	0.0348579375989922	2.23109202919015	-7.2475142062401e-11
	0.0348579375989922	84.1892960574918	-3.53135915913289
	72.5
 72	3.89536718516729e-08	-1.39259858842453	-0.0272158236416511
	72.4727841763583	1e-14	10
	0.0272158236416511	1.74285000794288	-7.24827841763583e-11
	0.0272158236416511	84.0878175972296	-3.55112640048256
	72.5
 73	3.90089806243022e-08	-1.4080752512874	-0.0223994046881392
	72.4776005953119	1e-14	10
	0.0223994046881392	1.4348790861789	-7.24876005953119e-11
	0.0223994046881392	83.8835629233024	-3.59059189078288
	72.5
 74	3.90913746816837e-08	-1.43106137023275	-0.0221366091621317
	72.4778633908379	1e-14	10
	0.0221366091621317	1.41806970846062	-7.24878633908379e-11
	0.0221366091621317	83.5760887607284	-3.64920649409351
	72.5
 75	3.92247895492884e-08	-1.46810007921585	-0.0227902741812471
	72.4772097258188	1e-14	10
	0.0227902741812471	1.45987945261206	-7.24872097258187e-11
	0.0227902741812471	83.0701600092655	-3.74365520200041
	72.5
 76	3.94497619886276e-08	-1.53003811251848	-0.0237317954172809
	72.4762682045827	1e-14	10
	0.0237317954172809	1.52009461245687	-7.24862682045827e-11
	0.0237317954172809	82.1946664685239	-3.90159718692213
	72.5
 77	3.98997068673061e-08	-1.65187895462764	-0.02565831355225
	72.4743416864477	1e-14	10
	0.02565831355225	1.64328168357079	-7.24843416864477e-11
	0.02565831355225	80.3609007373773	-4.21229133430049
	72.5
 78	4.07995966246631e-08	-1.88681713137403	-0.0293267399508995
	72.4706732600491	1e-14	10
	0.0293267399508995	1.87776314218066	-7.24806732600491e-11
	0.0293267399508995	76.3741101290228	-4.81138368500378
	72.5
 79	4.25993761393771e-08	-2.31724585579596	-0.0360940675583357
	72.4639059324417	1e-14	10
	0.0360940675583357	2.31001915548995	-7.24739059324417e-11
	0.0360940675583357	67.2271696020917	-5.90897693227969
	72.5
 80	4.54768785711641e-08	-2.87829299130075	-0.0449056535693799
	72.4550943464306	1e-14	10
	0.0449056535693799	2.87225991793511	-7.24650943464306e-11
	0.0449056535693799	49.8920572076558	-7.33964712781691
	72.5
 81	4.80315979053705e-08	-3.22803480879015	-0.0504344867342271
	72.4495655132658	1e-14	10
	0.0504344867342271	3.22469718524955	-7.24595655132658e-11
	0.0504344867342271	32.4045201561493	-8.23148876241489
	72.5
 82	5.02678267746673e-08	-3.40839118265534	-0.0532835985204297
	72.4467164014796	1e-14	10
	0.0532835985204297	3.40621208375792	-7.24567164014796e-11
	0.0532835985204297	16.1567737527693	-8.69139751577111
	72.5
 83	5.19425720804505e-08	-3.4635278511337	-0.0541812474001623
	72.4458187525998	1e-14	10
	0.0541812474001623	3.46338619327838	-7.24558187525998e-11
	0.0541812474001623	3.77286232946837	-8.83199602039092
	72.5
 84	5.33572859309403e-08	-3.45638801892471	-0.054078528482629
	72.4459214715174	1e-14	10
	0.054078528482629	3.45684405025072	-7.24559214715174e-11
	0.054078528482629	-6.62350644477755	-8.81378944825801
	72.5
 85	5.47460131124101e-08	-3.40218745862889	-0.0532536322791505
	72.4467463677208	1e-14	10
	0.0532536322791505	3.40430331906399	-7.24567463677209e-11
	0.0532536322791505	-16.6179441562795	-8.67557801950367
	72.5
 86	5.64016270666316e-08	-3.27840793973374	-0.0513234511943996
	72.4486765488056	1e-14	10
	0.0513234511943996	3.28133997747454	-7.24586765488056e-11
	0.0513234511943996	-28.0687818767532	-8.35994024632104
	72.5
 87	5.83950307903948e-08	-3.04872856572569	-0.0477492681521437
	72.4522507318479	1e-14	10
	0.0477492681521437	3.05355989139866	-7.24622507318479e-11
	0.0477492681521437	-40.9006925270119	-7.77425784260051
	72.5
 88	6.07234251849901e-08	-2.67931012750321	-0.0419731510184989
	72.4580268489815	1e-14	10
	0.0419731510184989	2.68521988854121	-7.24680268489815e-11
	0.0419731510184989	-54.1471150684163	-6.83224082513319
	72.5
 89	6.2486712592495e-08	-2.33560520712822	-0.0366085996963076
	72.4633914003037	1e-14	10
	0.0366085996963076	2.34286825536733	-7.24733914003037e-11
	0.0366085996963076	-62.6778346057782	-5.95579327817694
	72.5
 90	6.425e-08	-1.94619905851299	-0.030518143390158
	72.4694818566098	1e-14	10
	0.030518143390158	1.95389135146842	-7.24794818566098e-11
	0.030518143390158	-69.7168186534116	-4.96280759920813
	72.5
 91	6.4374610209175e-08	-1.91705256686689	-0.00046401835146604
	72.4995359816485	1e-14	9.37694895412484
	0.00046401835146604	0.0269146723905711	-7.25095359816485e-11
	0.00046401835146604	-70.1507596132392	-4.88848404551057
	72.5
 92	6.45699800897492e-08	-1.87114220183	0.0149146791954653
	72.5149146791955	1e-14	8.41501423044934
	0.0149146791954653	0.722538812115178	-7.25249146791955e-11
	-0.0149146791954653	-70.8210277138336	-4.7714126146665
	72.5
 93	6.48362955341206e-08	-1.8078780728578	0.0129097151595379
	72.5129097151595	1e-14	7.08143204455672
	0.0129097151595379	0.455578426308483	-7.25229097151595e-11
	-0.0129097151595379	-71.7020232480445	-4.6100890857874
	72.5
 94	6.51889699285115e-08	-1.7229413544018	0.032921036574982
	72.532921036575	1e-14	5.33807139401739
	0.032921036574982	0.592092029962647	-7.2542921036575e-11
	-0.032921036574982	-72.8101469598249	-4.39350045372459
	72.5
 95	6.55956958111349e-08	-1.62349751162164	0.116153949429575
	72.6161539494296	1e-14	3.38767489375486
	0.116153949429575	0	-7.26261539494296e-11
	-0.116153949429575	-74.0045261197022	-4.13991865463519
	72.5
 96	6.59228479055675e-08	-1.54248463647949	0.241474697650914
	72.7414746976509	1e-14	1.87723516981352
	0.241474697650914	0	-7.27514746976509e-11
	-0.241474697650914	-74.8998131717996	-3.93333582302269
	72.5
 97	6.625e-08	-1.46067171494603	0.379098178811098
	72.8790981788111	1e-14	0.379098178811098
	0.379098178811098	0	-7.28890981788111e-11
	-0.379098178811098	-75.7363911689927	-3.72471287311237
	72.5
 98	6.63025949497571e-08	-1.44742915930032	0.343934064011302
	72.8439340640113	1e-14	0.343934064011302
	0.343934064011302	0	-7.28539340640113e-11
	-0.343934064011302	-75.8645959795651	-3.6909443562158
	72.5
 99	6.64077848492714e-08	-1.42088747105419	0.274250636467643
	72.7742506364676	1e-14	0.274250636467643
	0.274250636467643	0	-7.27842506364676e-11
	-0.274250636467643	-76.1178912044546	-3.6232630511882
	72.5
 100	6.65037724387385e-08	-1.39657003765307	0.211790801585792
	72.7117908015858	1e-14	0.211790801585792
	0.211790801585792	0	-7.27217908015858e-11
	-0.211790801585792	-76.3435848925656	-3.56125359601532
	72.5
 101	6.66957476176727e-08	-1.3476648575302	0.0901176563107997
	72.5901176563108	1e-14	0.0901176563107997
	0.0901176563107997	0	-7.26001176563108e-11
	-0.0901176563107997	-76.7793287949973	-3.43654538670202
	72.5
 102	6.70796979755411e-08	-1.24883400393144	-0.140128073545689
	72.3598719264543	1e-14	0
	0.140128073545689	1e-14	-7.23698719264543e-11
	0.140128073545689	-77.58787040243	-3.18452671002517
	72.5
 103	6.78475986912779e-08	-1.04758128451009	-0.547399435757344
	71.9526005642427	1e-14	0
	0.547399435757344	1e-14	-7.19626005642426e-11
	0.547399435757344	-78.9506535675047	-2.67133227550072
	72.5
 104	6.93834001227514e-08	-0.634693043783772	-1.14410523262367
	71.3558947673763	1e-14	0
	1.14410523262367	1e-14	-7.13658947673763e-11
	1.14410523262367	-80.64634102336	-1.61846726164862
	72.5
 105	7.15667000613757e-08	-0.0380411531244337	-1.48332822318248
	71.0166717768175	1e-14	0
	1.48332822318248	1e-14	-7.10266717768175e-11
	1.48332822318248	-80.6874111817745	-0.097004940467306
	72.5
 106	7.375e-08	0.549243498754136	-1.22555689361604
	71.274443106384	1e-14	0
	1.22555689361604	1e-14	-7.1284443106384e-11
	1.22555689361604	-78.0024863302949	1.40057092182305
	72.5
 107	7.378125e-08	0.557560048677991	-0.65024755324757
	70.5997524467523	1e-14	0
	1.90024755324766	1e-14	19.2983781170973
	1.90024755324766	-77.9442073162419	1.42177812412888
	72.5
 108	7.38200970948931e-08	0.567947973661519	0.0650167359330514
	69.7611329402098	1e-14	0
	2.73886705979024	1e-14	19.2983781170963
	2.73886705979024	-77.8712045788672	1.44826733283687
	72.5
 109	7.38977912846792e-08	0.589020694917731	1.49610984107946
	68.0844584539098	1e-14	0
	4.41554154609023	1e-14	19.2983781171003
	4.41554154609023	-77.7218417531604	1.50200277204021
	72.5
 110	7.40531796642516e-08	0.632386709090921	4.21283770760338
	64.5856511375409	4.12724696435674	0
	7.91434886245911	1e-14	15.1807982226269
	7.91434886245911	-77.4093514837139	1.61258610818185
	72.5
 111	7.40716058243062e-08	0.637639566260039	4.50065637262037
	64.136423400372	8.11076939493008	0
	8.36357659962805	1e-14	11.1817226530352
	8.36357659962805	-77.3710612645037	1.6259808939631
	72.5
 112	7.41084581444155e-08	0.648227802364826	4.96456297280201
	63.1262371961817	17.2674050130932	0
	9.37376280381827	1e-14	2.03753564243724
	9.37376280381827	-77.2936493519188	1.65298089603031
	72.5
 113	7.41570366551218e-08	0.662377687554546	5.35839149101536
	61.5769252861412	27.5385400888128	0
	10.9230747138588	1e-14	-8.24592032119538
	10.9230747138588	-77.1898360140213	1.68906310326409
	72.5
 114	7.42245767373072e-08	0.682470985255874	5.62340599699615
	59.1403365047079	35.4106181546496	0
	13.3596634952921	1e-14	-16.1094638511376
	13.3596634952921	-77.0419691794697	1.74030101240248
	72.5
 115	7.4291422805619e-08	0.702882852600953	5.72232051453104
	56.5654082897692	38.1589453058993	0
	15.9345917102308	1e-14	-18.8688741522144
	15.9345917102308	-76.8914024738233	1.79235127413243
	72.5
 116	7.43646358775072e-08	0.725865540795882	5.76960338957578
	53.6841682892871	39.067554882742	0
	18.8158317107129	1e-14	-19.7635541997897
	18.8158317107129	-76.7215167691008	1.8509571290295
	72.5
 117	7.44561618079639e-08	0.755529909013804	5.80530172405421
	50.0588294054985	39.3553937064081	0
	22.4411705945015	1e-14	-20.0290520985192
	22.4411705945015	-76.5016321015088	1.9266012679852
	72.5
 118	7.45976964293275e-08	0.803446109671329	5.85124709142911
	44.4433899183304	39.4077257307999	0
	28.0566100816696	1e-14	-20.1243597761472
	28.0566100816696	-76.1447127254497	2.04878757966189
	72.5
 119	7.48508308739043e-08	0.895305585905043	5.93772445610337
	34.4044894999305	39.4157832762653	0
	38.0955105000695	1e-14	-20.0952057737688
	38.0955105000695	-75.4530108834647	2.28302924405786
	72.5
 120	7.5357099763058e-08	1.10246935685539	6.14303647261939
	14.3590459502981	39.4243001895345	0
	58.1409540497019	1e-14	-20.1466490417483
	58.1409540497019	-73.8487737983387	2.81129685998123
	72.5
 121	7.54553248222935e-08	1.14626033473906	6.1886373905736
	10.4756444988327	39.4110648182033	0
	62.0243555011673	1e-14	-20.0919563462099
	62.0243555011673	-73.5021263715849	2.92296385358461
	72.5
 122	7.56026624111468e-08	1.21411093522539	6.26183048234407
	4.65533403647353	39.3951322223002	0
	67.8446659635265	1e-14	-20.1174755826695
	67.8446659635265	-72.9591377534138	3.09598288482474
	72.5
 123	7.575e-08	1.28424137424474	7.57670426789196
	0.0767042678919552	3.05966488429395	0
	72.423295732108	1e-14	16.2595698733583
	72.423295732108	-72.388708106911	3.2748155043241
	72.5
 124	7.57583679793444e-08	1.28827953267662	7.57077955407267
	0.0707795540726721	2.82109523404927	0
	72.4292204459273	1e-14	-2.82108983631327
	72.4292204459273	-72.3554740018048	3.28511280832539
	72.5
 125	7.57751039380333e-08	1.29635427470033	7.56055035804295
	0.0605503580429456	2.41007998132415	0
	72.4394496419571	1e-14	-2.4099869134008
	72.4394496419571	-72.2888660430208	3.30570340048584
	72.5
 126	7.5808575855411e-08	1.31249384988431	7.54749764685724
	0.0474976468572379	1.88723655588018	0
	72.4525023531428	1e-14	-1.88732505997879
	72.4525023531428	-72.1548131594111	3.346859317205
	72.5
 127	7.58755196901665e-08	1.34473035191433	7.53681735437823
	0.0368173543782291	1.46077625135785	0
	72.4631826456218	1e-14	-1.46068619329962
	72.4631826456218	-71.8833709538373	3.42906239738154
	72.5
 128	7.60094073596774e-08	1.40902136402637	7.53449406814899
	0.0344940681489874	1.36816944912937	0
	72.465505931851	1e-14	-1.36819904777413
	72.465505931851	-71.3272018520377	3.59300447826724
	72.5
 129	7.62771826986993e-08	1.53683370789457	7.5382384152212
	0.0382384152212012	1.51744849992551	0
	72.4617615847788	1e-14	-1.51711118251246
	72.4617615847788	-70.1621023532664	3.91892595513115
	72.5
 130	7.67830018240553e-08	1.77525884409663	7.54395710879587
	0.0439571087958655	1.74572923247897	0
	72.4560428912041	1e-14	-1.74602905755807
	72.4560428912041	-67.7718631945189	4.52691005244642
	72.5
 131	7.77946400747673e-08	2.2387611531711	7.55575913175463
	0.0557591317546269	2.21794985568056	0
	72.4442408682454	1e-14	-2.21747797711757
	72.4442408682454	-62.2700002123803	5.70884094058629
	72.5
 132	7.98179165761913e-08	3.10088648568357	7.57711150833994
	0.0771115083399394	3.07607695249937	0
	72.4228884916601	1e-14	-3.07647530056066
	72.4228884916601	-48.5784065787516	7.90726053849311
	72.5
 133	8.21589025779641e-08	3.96743181866678	7.59878658468716
	0.0987865846871614	3.95215433398472	0
	72.4012134153128	1e-14	-3.95175324471817
	72.4012134153128	-28.7657008662837	10.1169511376003
	72.5
 134	8.34595797481858e-08	4.37854047313395	7.60884337563229
	0.10884337563229	4.36034160779755	0
	72.3911566243677	1e-14	-4.36074089085188
	72.3911566243677	-16.1690593045752	11.1652782064916
	72.5
 135	8.50632158185104e-08	4.80685938083649	7.61955132749458
	0.119551327494577	4.79614700591746	0
	72.3804486725054	1e-14	-4.79574735687253
	72.3804486725054	0.593407661322565	12.257491421133
	72.5
 136	8.6274384620912e-08	5.06942864907548	7.6259525666517
	0.125952566651705	5.05725814712374	0
	72.3740474333483	1e-14	-5.05765672233494
	72.3740474333483	13.988333705292	12.9270430551425
	72.5
 137	8.7688076286704e-08	5.30611390187215	7.63189586254215
	0.131895862542152	5.3000818527598	0
	72.3681041374578	1e-14	-5.2996827736675
	72.3681041374578	30.1959428364604	13.530590449774
	72.5
 138	8.93994975373183e-08	5.48898313250866	7.63638305086596
	0.136383050865959	5.48366411163571	0
	72.363616949134	1e-14	-5.48406182634452
	72.363616949134	50.3164705097771	13.9969069878971
	72.5
 139	9.14475016012487e-08	5.5563806356152	7.63819529930626
	0.138195299306261	5.55786886799464	0
	72.3618047006937	1e-14	-5.55747053262214
	72.3618047006937	74.5531744455793	14.1687706208188
	72.5
 140	9.37825417391952e-08	5.43387641454091	7.6352631422743
	0.135263142274297	5.43782563578699	0
	72.3647368577257	1e-14	-5.43822358241291
	72.3647368577257	101.541524148291	13.8563848570793
	72.5
 141	9.63911146957198e-08	5.05735796284933	7.62622574400382
	0.126225744003818	5.06841099872287	0
	72.3737742559962	1e-14	-5.06801151367715
	72.3737742559962	129.695391753309	12.8962628052658
	72.5
 142	9.87580573478599e-08	4.51514327620918	7.61297452347115
	0.112974523471152	4.52833087775053	0
	72.3870254765288	1e-14	-4.52873012512431
	72.3870254765288	152.416533100665	11.5136153543334
	72.5
 143	1.01125e-07	3.8079042529054	7.5956817580991
	0.0956817580991043	3.82635335147346	0
	72.4043182419009	1e-14	-3.82595098398096
	72.4043182419009	171.570707838529	9.71015584490878
	72.5
 144	1.01156333311619e-07	3.79746851379882	6.82815201766691
	0.581484482430739	17.5338267009564	0
	71.9185155175693	1e-14	-36.8285577925942
	71.9185155175693	171.797261095948	9.68354471018699
	72.5
 145	1.01218999934857e-07	3.77644642824678	5.31236247310046
	1.5723598673917	16.1759302884025	0
	70.9276401326083	1e-14	-35.4761140586326
	70.9276401326083	172.248582090675	9.62993839202928
	72.5
 146	1.01344333181334e-07	3.7333953150288	2.78641667361558
	4.05974392696162	1e-14	0
	68.4402560730384	1e-14	-19.2965724641099
	68.4402560730384	173.140113290489	9.52015805332343
	72.5
 147	1.01469939379845e-07	3.68873993568067	0.721680311428926
	7.01925550522805	1e-14	0
	65.480744494772	1e-14	-19.3001837702354
	65.480744494772	174.018014619618	9.4062868359857
	72.5
 148	1.01664914574679e-07	3.61625249686414	-2.48863059205338