Title: // Class-D RF Power Amplifier - 300W, 13.56 MHz
Date: 9:34:31 PM, Sat Jun 27, 2026
Plotname: Transient Analysis `tran': time = (0 s -> 1 us)
Flags: real
No. Variables:       13
No. Points:     1540
Variables:	0	time	s
		1	L1:i	A plot=0 grid=0
		2	M1:vgs	V plot=0 grid=0
		3	M1:vds	V plot=0 grid=0
		4	M1:id	A plot=0 grid=0
		5	M2:vgs	V plot=0 grid=0
		6	M2:vds	V plot=0 grid=0
		7	M2:id	A plot=0 grid=0
		8	Vdd:i	A plot=0 grid=0
		9	mid	V plot=0 grid=0
		10	lc_out	V plot=0 grid=0
		11	rload	V plot=0 grid=0
		12	vdd	V plot=0 grid=0
Values:
 0	0	0	-36.24
	36.26	1e-14	0
	36.24	1e-14	-3.627e-11
	36.24	36.24	0
	72.5
 1	3.10609717933937e-11	3.74097474396136e-05	-35.3589785293519
	35.8985825989123	1e-14	0
	36.6014174010877	1e-14	19.298378117132
	36.6014174010877	36.2400978671605	9.53948559710147e-05
	72.5
 2	6.07968625113656e-11	0.000107500365679061	-34.5155414897275
	35.5525840098179	1e-14	0
	36.9474159901821	1e-14	19.2983781171314
	36.9474159901821	36.2402833995543	0.000274125932481606
	72.5
 3	1.20268643947309e-10	0.00031621634098327	-32.8286658836694
	34.8605883584382	1e-14	0
	37.6394116415618	1e-14	19.298378117133
	37.6394116415618	36.2408424329374	0.000806351669507338
	72.5
 4	2.39212206819197e-10	0.00114461913646564	-29.4548994979907
	33.4766122292414	1e-14	0
	39.0233877707586	1e-14	19.298378117133
	39.0233877707586	36.2431397079132	0.00291877879798738
	72.5
 5	4.77099332562972e-10	0.00444270514169812	-22.707245981474
	30.7087807160071	1e-14	0
	41.7912192839929	1e-14	19.2983781171372
	41.7912192839929	36.2529638192618	0.0113288981113302
	72.5
 6	9.52873584050522e-10	0.0175791081335379	-9.21097716951088
	25.1740794684682	1e-14	0
	47.3259205315318	1e-14	19.2983781171412
	47.3259205315318	36.2976078295797	0.0448267257405217
	72.5
 7	1.47643679202526e-09	0.0426987375914517	4.9030145471869
	18.3455428661765	11.4964409047464	0
	54.1544571338235	1e-14	7.80201420047589
	54.1544571338235	36.3952365679714	0.108881780858202
	72.5
 8	1.73821839601263e-09	0.0613146552779423	8.14780334235754
	11.1190675018523	118.459864911653	0
	61.3809324981477	1e-14	-99.1365073666468
	61.3809324981477	36.4716739589459	0.156352370958753
	72.5
 9	1.86910919800632e-09	0.073314897870332	8.14246202695576
	5.87809410670314	112.613379637514	0
	66.6219058932969	1e-14	-93.329879859868
	66.6219058932969	36.5210211415817	0.186952989569346
	72.5
 10	1.90183189850474e-09	0.0766674525188717	8.16577964862735
	4.59250370843789	112.338607125622	0
	67.9074962915621	1e-14	-93.0269228490743
	67.9074962915621	36.5347912490544	0.195502003923123
	72.5
 11	1.95091594925237e-09	0.0819480203358824	8.30192641841467
	2.76528844831992	95.9044993203222	0
	69.7347115516801	1e-14	-76.5815742025408
	69.7347115516801	36.5565391330718	0.2089674518565
	72.5
 12	2e-09	0.087497284645649	8.76312184766479
	1.26312184766479	58.4710769526235	0
	71.2368781523352	1e-14	-39.1996353681957
	71.2368781523352	36.5795376953049	0.223118075846405
	72.5
 13	2.02022818757585e-09	0.0898489811204465	8.53218367894664
	1.03218367894664	46.4832671255055	0
	71.4678163210534	1e-14	-46.4976116434105
	71.4678163210534	36.5894015043872	0.229114901857139
	72.5
 14	2.05425791989266e-09	0.0938225510560966	8.20983890016302
	0.709838900163021	30.7276237296614	0
	71.790161099837	1e-14	-30.6955040586892
	71.790161099837	36.6061833556743	0.239247505193046
	72.5
 15	2.08677948333607e-09	0.0976469047668962	8.00286378732757
	0.50286378732757	21.2070948027488	0
	71.9971362126724	1e-14	-21.2362238673838
	71.9971362126724	36.6225598045039	0.248999607155585
	72.5
 16	2.15182261022289e-09	0.105339765644354	7.75238473668945
	0.25238473668945	10.3044406708859	0
	72.2476152633105	1e-14	-10.2745143579831
	72.2476152633105	36.6562222250179	0.268616402393103
	72.5
 17	2.25473506475365e-09	0.117568240795803	7.5829218899236
	0.0829218899235968	3.31043226935921	0
	72.4170781100764	1e-14	-3.33555330386522
	72.4170781100764	36.7118091026938	0.299799014029298
	72.5
 18	2.28979738836711e-09	0.121741360271055	7.55946961112258
	0.0594696111225801	2.3667201818663	0
	72.4405303888774	1e-14	-2.34159393381678
	72.4405303888774	36.7313768878625	0.31044046869119
	72.5
 19	2.35992203559403e-09	0.130086715607109	7.53072209162248
	0.0307220916224793	1.21794012353547	0
	72.4692779083775	1e-14	-1.24305192122188
	72.4692779083775	36.7714440918235	0.331721124798127
	72.5
 20	2.50017133004788e-09	0.146760295907508	7.50861401400546
	0.00861401400545958	0.340476782233107	0
	72.4913859859945	1e-14	-0.315335122815314
	72.4913859859945	36.8552676769476	0.374238754564145
	72.5
 21	2.78066991895557e-09	0.179995583871199	7.50344554140027
	0.00344554140026787	0.136093250583911	0
	72.4965544585997	1e-14	-0.161221311107813
	72.4965544585997	37.037522515718	0.458988738871557
	72.5
 22	3.24231063271042e-09	0.234291855586794	7.50593273683955
	0.00593273683955431	0.234412055654197	0
	72.4940672631604	1e-14	-0.209264758891093
	72.4940672631604	37.3794375290726	0.597444231746323
	72.5
 23	4.0433873779661e-09	0.327092223559946	7.5077960060153
	0.00779600601529751	0.308110273904782	0
	72.4922039939847	1e-14	-0.333209676239832
	72.4922039939847	38.0944952024693	0.834085170077862
	72.5
 24	5.64554086847746e-09	0.505751379205208	7.51265922570975
	0.0126592257097542	0.500640463543472	0
	72.4873407742902	1e-14	-0.474956398834934
	72.4873407742902	39.9695901825777	1.28966601697328
	72.5
 25	8.84984784950017e-09	0.824406556281558	7.52045897773407
	0.0204589777340658	0.809951756709862	0
	72.4795410222659	1e-14	-0.835412322060332
	72.4795410222659	45.3164527549129	2.10223671851797
	72.5
 26	1.25650717899746e-08	1.10882708204708	7.52793268558395
	0.0279326855839486	1.10694199848857	0
	72.4720673144161	1e-14	-1.08146697717423
	72.4720673144161	53.6825717931138	2.82750905922005
	72.5
 27	1.47825358949873e-08	1.2261510930106	7.53071917871446
	0.0307191787144632	1.21782416763093	0
	72.4692808212855	1e-14	-1.24329514214584
	72.4692808212855	59.4899717329628	3.12668528717703
	72.5
 28	1.7e-08	1.29928052702721	7.53278391412827
	0.0327839141282738	1.30003905789336	0
	72.4672160858717	1e-14	-1.27456658592439
	72.4672160858717	65.6339560100221	3.31316534391937
	72.5
 29	1.71217011293102e-08	1.30133802339416	4.07093012042314
	1.43897529283248	1.63176615713391	0
	71.0610247071675	1e-14	-20.9301330486747
	71.0610247071675	65.9761692365269	3.3184119596551
	72.5
 30	1.73100301659075e-08	1.30366135401025	-1.2483367420672
	3.65286989423321	1e-14	0
	68.8471301057668	1e-14	-19.2983893427989
	68.8471301057668	66.504005456282	3.32433645272614
	72.5
 31	1.75984396510221e-08	1.30385904467436	-9.336352719978
	7.10123332090518	1e-14	0
	65.3987666790948	1e-14	-19.2983668915463
	65.3987666790948	67.3045453287631	3.32484056391963
	72.5
 32	1.81752586212512e-08	1.2920378960554	-25.5132093701189
	13.9971354799298	1e-14	0
	58.5028645200702	1e-14	-19.2983893428091
	58.5028645200702	68.8673403361387	3.29469663494127
	72.5
 33	1.85876293106256e-08	1.27364504076718	-37.0796554754672
	18.9255169495571	1e-14	0
	53.5744830504429	1e-14	-19.2983668915582
	53.5744830504429	69.9459837055513	3.24779485395632
	72.5
 34	1.9e-08	1.24702498460609	-48.6483847758513
	23.8516152241487	1e-14	0
	48.6483847758513	1e-14	-19.2983893428189
	48.6483847758513	70.9839008985624	3.17991371074553
	72.5
 35	1.90210250810618e-08	1.24545468278357	-48.6419428796484
	23.8580571203516	1e-14	0
	48.6419428796484	1e-14	-2.38671304941818e-11
	48.6419428796484	71.0356110664987	3.1759094410981
	72.5
 36	1.90508525900051e-08	1.24322285772647	-48.6328121868453
	23.8671878131547	1e-14	0
	48.6328121868453	1e-14	-2.38742359215394e-11
	48.6328121868453	71.1088891164292	3.17021828720249
	72.5
 37	1.91002476534016e-08	1.23950892049319	-48.6177276677658
	23.8822723322342	1e-14	0
	48.6177276677658	1e-14	-2.38884467762546e-11
	48.6177276677658	71.2298810164649	3.16074774725763
	72.5
 38	1.91990377801947e-08	1.23201409394186	-48.587694833455
	23.912305166545	1e-14	0
	48.587694833455	1e-14	-2.3922305166545e-11
	48.587694833455	71.4705160938313	3.14163593955174
	72.5
 39	1.93966180337808e-08	1.21675910211456	-48.5281820559228
	23.9718179440772	1e-14	0
	48.5281820559228	1e-14	-2.39818179440772e-11
	48.5281820559228	71.9463278104712	3.10273571039213
	72.5
 40	1.97917785409529e-08	1.18520793717234	-48.4114315701866
	24.0885684298134	1e-14	0
	48.4114315701866	1e-14	-2.40985684298134e-11
	48.4114315701866	72.8756196946083	3.02228023978946
	72.5
 41	2.05820995552972e-08	1.11810866896122	-48.1875206437066
	24.3124793562934	1e-14	0
	48.1875206437066	1e-14	-2.43224793562934e-11
	48.1875206437066	74.6410692378142	2.85117710585112
	72.5
 42	2.21627415839858e-08	0.969357979944005	-47.7816653738678
	24.7183346261322	1e-14	0
	47.7816653738678	1e-14	-2.47283346261322e-11
	47.7816653738678	77.7719012773578	2.47186284885721
	72.5
 43	2.53240256413629e-08	0.62631389738765	-47.1611890269122
	25.3388109730878	1e-14	0
	47.1611890269122	1e-14	-2.53488109730878e-11
	47.1611890269122	82.263492129194	1.59710043833851
	72.5
 44	2.9274594847025e-08	0.148136104666453	-46.7848570015426
	25.7151429984574	1e-14	0
	46.7848570015426	1e-14	-2.57251429984574e-11
	46.7848570015426	84.2989454912017	0.377747066899455
	72.5
 45	3.32768636935879e-08	-0.338036221190433	-46.878343653768
	25.621656346232	1e-14	0
	46.878343653768	1e-14	-2.5631656346232e-11
	46.878343653768	82.2506621024767	-0.861992364035605
	72.5
 46	3.6875e-08	-0.728919169268929	-47.3505610603742
	25.1494389396258	1e-14	0
	47.3505610603742	1e-14	-2.51594389396258e-11
	47.3505610603742	77.1698138532447	-1.85874388163577
	72.5
 47	3.70426783420227e-08	-0.745336987786713	-47.4808138128695
	25.0191861871305	1e-14	0.838391710113671
	47.4808138128695	1e-14	-2.50291861871305e-11
	47.4808138128695	76.8620401812152	-1.90060931885612
	72.5
 48	3.72808041729074e-08	-0.768403195490018	-47.6664658830337
	24.8335341169663	1e-14	2.02902086453699
	47.6664658830337	1e-14	-2.48435341169663e-11
	47.6664658830337	76.4197525867991	-1.95942814849955
	72.5
 49	3.76976134520091e-08	-0.807655736010855	-47.8540193024947
	24.6459806975053	1e-14	4.1130672600454
	47.8540193024947	2.74243624318213	-2.46559806975053e-11
	47.8540193024947	75.6208118137257	-2.05952212682768
	72.5
 50	3.78742242551279e-08	-0.823975329962273	-47.5805484638328
	24.9194515361672	1e-14	4.99612127563969
	47.5805484638328	16.3023373077295	-2.49294515361672e-11
	47.5805484638328	75.272639750261	-2.10113709140379
	72.5
 51	3.80577311592055e-08	-0.841154714779005	-46.4089433831504
	26.0910566168496	1e-14	5.91365579602734
	46.4089433831504	42.0925694348147	-2.61010566168496e-11
	46.4089433831504	74.9037654472795	-2.14494452268646
	72.5
 52	3.82626455448666e-08	-0.86149406693168	-43.4038453548925
	29.0961546451075	1e-14	6.93822772433312
	43.4038453548925	83.6598785840624	-2.91061546451075e-11
	43.4038453548925	74.4807328342891	-2.19680987067578
	72.5
 53	3.84580731054684e-08	-0.883242205046213	-38.3510367934239
	34.1489632065761	1e-14	7.91536552734191
	38.3510367934239	133.10761450251	-3.41589632065761e-11
	38.3510367934239	74.0625415145162	-2.25226762286784
	72.5
 54	3.86589521769406e-08	-0.909609642682066	-30.5495947902818
	41.9504052097182	1e-14	8.91976088470326
	30.5495947902818	189.244356721795	-4.19604052097182e-11
	30.5495947902818	73.6121700650777	-2.31950458883927
	72.5
 55	3.87669760884703e-08	-0.926028614106849	-25.2072539941678
	47.2927460058322	1e-14	9.45988044235164
	25.2072539941678	219.478378637124	-4.73027460058322e-11
	25.2072539941678	73.3593518744851	-2.36137296597246
	72.5
 56	3.8875e-08	-0.944419695007349	-19.0808425282641
	53.4191574717359	1e-14	9.99999999999999
	19.0808425282641	248.288022203025	-5.34291574717359e-11
	19.0808425282641	73.097504466418	-2.40827022226874
	72.5
 57	3.89076284592722e-08	-0.950497108024671	-17.1281836642218
	55.3718163357782	1e-14	10
	17.1281836642218	244.21665524679	-5.53818163357782e-11
	17.1281836642218	73.0160214117823	-2.42376762546291
	72.5
 58	3.8962804305422e-08	-0.961060826021878	-13.8723152442182
	58.6276847557818	1e-14	10
	13.8723152442182	237.428047496017	-5.86376847557818e-11
	13.8723152442182	72.8768798601709	-2.45070510635579
	72.5
 59	3.90137564697464e-08	-0.971317889966993	-10.9465906790152
	61.5534093209848	1e-14	10
	10.9465906790152	231.327802062897	-6.15634093209848e-11
	10.9465906790152	72.7459808600109	-2.47686061941583
	72.5
 60	3.91012921382759e-08	-0.990020126221591	-6.10377151850512
	66.3962284814949	1e-14	10
	6.10377151850512	220.408271449648	-6.64062284814949e-11
	6.10377151850512	72.515644376222	-2.52455132186506
	72.5
 61	3.91450599725406e-08	-0.999856851648722	-3.94118987215356
	68.5588101278464	1e-14	10
	3.94118987215356	183.135844802772	-6.85688101278464e-11
	3.94118987215356	72.3979090181118	-2.54963497170424
	72.5
 62	3.91809935357109e-08	-1.00813302855218	-2.54537490033927
	69.9546250996607	1e-14	10
	2.54537490033927	134.667703830466	-6.99646250996607e-11
	2.54537490033927	72.3000449465767	-2.57073922280807
	72.5
 63	3.92167923041453e-08	-1.01650815067889	-1.56600178270654
	70.9339982172935	1e-14	10
	1.56600178270654	89.7482286602392	-7.09439982172935e-11
	1.56600178270654	72.2015823630919	-2.59209578423116
	72.5
 64	3.92633048397788e-08	-1.0275082099265	-0.789536799133899
	71.7104632008661	1e-14	10
	0.789536799133899	47.9520437743691	-7.17204632008661e-11
	0.789536799133899	72.0723913781719	-2.62014593531258
	72.5
 65	3.93085901069963e-08	-1.03828696650417	-0.396146891622102
	72.1038531083779	1e-14	10
	0.396146891622102	24.7379545881302	-7.21138531083779e-11
	0.396146891622102	71.9453841801953	-2.64763176458562
	72.5
 66	3.93502630667514e-08	-1.04822905277865	-0.211479947018217
	72.2885200529818	1e-14	10
	0.211479947018217	13.3750099780863	-7.22985200529818e-11
	0.211479947018217	71.8275304792381	-2.67298408458557
	72.5
 67	3.93940090314622e-08	-1.05866869812475	-0.112353811050121
	72.3876461889499	1e-14	10
	0.112353811050121	7.15379090961375	-7.23976461889499e-11
	0.112353811050121	71.7028580275839	-2.6996051802181
	72.5
 68	3.94450607692197e-08	-1.07084178998969	-0.057663106904023
	72.442336893096	1e-14	10
	0.057663106904023	3.68509129467539	-7.2452336893096e-11
	0.057663106904023	71.5561621635506	-2.73064656447372
	72.5
 69	3.95086443908212e-08	-1.08597661518053	-0.0304588579590602
	72.4695411420409	1e-14	10
	0.0304588579590602	1.95010342382222	-7.24795411420409e-11
	0.0304588579590602	71.3716765238486	-2.76924036871034
	72.5
 70	3.95902835680782e-08	-1.10535656336161	-0.020008462871254
	72.4799915371287	1e-14	10
	0.020008462871254	1.28192370649984	-7.24899915371287e-11
	0.020008462871254	71.131939956208	-2.8186592365721
	72.5
 71	3.970020944458e-08	-1.13134963962069	-0.017637091027683
	72.4823629089723	1e-14	10
	0.017637091027683	1.13017175360635	-7.24923629089723e-11
	0.017637091027683	70.8040917714922	-2.88494158103275
	72.5
 72	3.98597373419877e-08	-1.16885559252724	-0.017983846407915
	72.4820161535921	1e-14	10
	0.017983846407915	1.15236479711147	-7.24920161535921e-11
	0.017983846407915	70.3180825444627	-2.98058176094445
	72.5
 73	4.0121977103699e-08	-1.22993571638164	-0.0189700538273027
	72.4810299461727	1e-14	10
	0.0189700538273027	1.21547841284771	-7.24910299461727e-11
	0.0189700538273027	69.4931170996516	-3.13633607677317
	72.5
 74	4.06464566271216e-08	-1.3498452391224	-0.0208422662014201
	72.4791577337986	1e-14	10
	0.0208422662014201	1.33527006640368	-7.24891577337986e-11
	0.0208422662014201	67.7479411293463	-3.44210535976213
	72.5
 75	4.16954156739668e-08	-1.57985654360381	-0.0244562441768999
	72.4755437558231	1e-14	10
	0.0244562441768999	1.56642167702914	-7.24855437558231e-11
	0.0244562441768999	63.8921174204196	-4.02863418618971
	72.5
 76	4.32636707533575e-08	-1.89635385208828	-0.0294248322135
	72.4705751677865	1e-14	10
	0.0294248322135	1.8840314952829	-7.24805751677865e-11
	0.0294248322135	57.2854911879597	-4.83570232282511
	72.5
 77	4.52569544682704e-08	-2.243473265472	-0.034892369286549
	72.4651076307134	1e-14	10
	0.034892369286549	2.23329067666654	-7.2446685921283e-11
	0.034892369286549	47.6547925599208	-5.7208568269536
	72.5
 78	4.78189622726376e-08	-2.58989547164352	-0.0403664059230797
	72.4596335940769	1e-14	10
	0.0403664059230797	2.58270757795281	-7.24980553035073e-11
	0.0403664059230797	33.5978750555936	-6.60423345269097
	72.5
 79	5.03645499688912e-08	-2.80997459447713	-0.043866420467156
	72.4561335795328	1e-14	10
	0.043866420467156	2.80598431310094	-7.24377118701024e-11
	0.043866420467156	18.4134362692986	-7.16543521591668
	72.5
 80	5.22074168491101e-08	-2.88772005903577	-0.0451236922454096
	72.4548763077546	1e-14	10
	0.0451236922454096	2.8861638438792	-7.2493298017185e-11
	0.0451236922454096	7.04487387663285	-7.36368615054121
	72.5
 81	5.3041208424555e-08	-2.89991649809831	-0.0453319286566975
	72.4546680713433	1e-14	10
	0.0453319286566975	2.89944231569717	-7.24646680713433e-11
	0.0453319286566975	1.88006806013429	-7.39478707015069
	72.5
 82	5.3875e-08	-2.89779627039553	-0.0453159884042719
	72.4546840115957	1e-14	10
	0.0453159884042719	2.89842587747426	-7.24646840115957e-11
	0.0453159884042719	-3.25716797967027	-7.3893804895086
	72.5
 83	5.39561046727296e-08	-2.89676667806746	-0.0249981917503655
	72.4750018082496	1e-14	9.59447663635207
	0.0249981917503655	1.50099453819908	-7.24850018082496e-11
	0.0249981917503655	-3.7544176541244	-7.38675502907202
	72.5
 84	5.41028347383584e-08	-2.89468841086529	-0.00785828634453951
	72.4921417136555	1e-14	8.86082630820802
	0.00785828634453951	0.415520484495439	-7.25021417136555e-11
	0.00785828634453951	-4.65313997199867	-7.3814554477065
	72.5
 85	5.42699193171051e-08	-2.89179141145372	-0.00995248839244918
	72.4900475116076	1e-14	8.02540341447435
	0.00995248839244918	0.44409054821061	-7.25000475116075e-11
	0.00995248839244918	-5.67429681875303	-7.37406809920698
	72.5
 86	5.46040884745986e-08	-2.88429216780249	-0.014299340979317
	72.4857006590207	1e-14	6.35455762700702
	0.014299340979317	0.401924949730571	-7.24957006590207e-11
	0.014299340979317	-7.70856628285931	-7.35494502789634
	72.5
 87	5.49398046622749e-08	-2.87447509841123	-0.0246009131150063
	72.475399086885	1e-14	4.67597668862554
	0.0246009131150063	0.282622914784201	-7.2485399086885e-11
	0.0246009131150063	-9.74024700306937	-7.32991150094863
	72.5
 88	5.54074023311374e-08	-2.85699518403277	-0.0605055865943144
	72.4394944134057	1e-14	2.33798834431278
	0.0605055865943144	1e-14	-7.24494944134057e-11
	0.0605055865943144	-12.5467606078148	-7.28533771928357
	72.5
 89	5.5875e-08	-2.83509835569281	-0.110400864271617
	72.3895991357284	1e-14	1.06581410364015e-14
	0.110400864271617	1e-14	-7.23995991357284e-11
	0.110400864271617	-15.3224233446152	-7.22950080701667
	72.5
 90	5.59383249632886e-08	-2.83174672547436	-0.154514968781621
	72.3454850312184	1e-14	0
	0.154514968781621	1e-14	-7.23554850312184e-11
	0.154514968781621	-15.6954091501819	-7.22095414995963
	72.5
 91	5.60627397001784e-08	-2.82499215337678	-0.241082707964642
	72.2589172920354	1e-14	0
	0.241082707964642	1e-14	-7.22689172920354e-11
	0.241082707964642	-16.4268889054469	-7.2037299911108
	72.5
 92	5.6181404137712e-08	-2.81823423221761	-0.323452159907841
	72.1765478400922	1e-14	0
	0.323452159907841	1e-14	-7.21865478400922e-11
	0.323452159907841	-17.1220501266199	-7.18649729215492
	72.5
 93	5.64187330127791e-08	-2.80379910975926	-0.487572389557731
	72.0124276104423	1e-14	0
	0.487572389557731	1e-14	-7.20224276104423e-11
	0.487572389557731	-18.5046776373737	-7.14968772988611
	72.5
 94	5.68933907629134e-08	-2.77128662717879	-0.813071829282647
	71.6869281707174	1e-14	0
	0.813071829282647	1e-14	-7.16969281707174e-11
	0.813071829282647	-21.2369385224325	-7.06678089930591
	72.5
 95	5.78427062631819e-08	-2.69200633330612	-1.45101674406987
	71.0489832559301	1e-14	0
	1.45101674406987	1e-14	-7.10589832559301e-11
	1.45101674406987	-26.5522085495426	-6.86461614993061
	72.5
 96	5.9741337263719e-08	-2.47945672678276	-2.65875302512163
	69.8412469748784	1e-14	0
	2.65875302512163	1e-14	-6.98512469748784e-11
	2.65875302512163	-36.4556326742028	-6.32261465329603
	72.5
 97	6.20362746554891e-08	-2.13534310741842	-3.96144527318613
	68.5385547268139	1e-14	0
	3.96144527318613	1e-14	-6.85485547268139e-11
	3.96144527318613	-46.8448202799756	-5.44512492391698
	72.5
 98	6.47223655429855e-08	-1.63224647754416	-5.20625338457911
	67.2937466154209	1e-14	0
	5.20625338457911	1e-14	-6.73037466154209e-11
	5.20625338457911	-56.327974992939	-4.1622285177376
	72.5
 99	6.76859488203004e-08	-0.9868713354633	-6.1610047501134
	66.3389952498866	1e-14	0
	6.1610047501134	1e-14	-6.63489952498866e-11
	6.1610047501134	-62.9396872656824	-2.51652190543141
	72.5
 100	7.09735395152076e-08	-0.21465787517022	-6.64688606096038
	65.8531139390396	1e-14	0
	6.64688606096038	1e-14	-6.58631139390396e-11
	6.64688606096038	-65.1728155510179	-0.547377581684062
	72.5
 101	7.375e-08	0.438882825181166	-6.57030990686003
	65.92969009314	1e-14	0
	6.57030990686003	1e-14	-6.593969009314e-11
	6.57030990686003	-62.8439977083028	1.11915120421197
	72.5
 102	7.3799882373299e-08	0.450506621791302	-5.14990541387652
	65.3547996541614	1e-14	0
	7.14520034583862	1e-14	19.2983781171025
	7.14520034583862	-62.7665435386876	1.14879188556782
	72.5
 103	7.38529410731802e-08	0.462917278440885	-3.63897377518005
	64.7433832976103	1e-14	0
	7.75661670238967	1e-14	19.2983781171013
	7.75661670238967	-62.683337763607	1.18043906002426
	72.5
 104	7.39590584729426e-08	0.488017825579292	-0.616620870379954
	63.5210402119154	1e-14	0
	8.97895978808463	1e-14	19.2983781171048
	8.97895978808463	-62.5119794954451	1.24444545522719
	72.5
 105	7.40121171728238e-08	0.500707233635759	0.894802214971184
	62.910115302019	1e-14	0
	9.58988469798102	1e-14	19.2983781171041
	9.58988469798102	-62.4238124983246	1.27680344577119
	72.5
 106	7.41182345725862e-08	0.526365332813395	3.90139878101791
	61.6720158775707	1.28550600316576	0
	10.8279841224293	1e-14	18.0151202497378
	10.8279841224293	-62.2424372495505	1.34223159867416
	72.5
 107	7.41678604645345e-08	0.538503607718645	5.17209668055122
	60.9576780991702	22.2086226461197	0
	11.5423219008298	1e-14	-2.91107926625635
	11.5423219008298	-62.155266487923	1.37318419968255
	72.5
 108	7.42383130180959e-08	0.555980220669898	6.41053548339068
	59.3780147595562	66.6287040941715	0
	13.1219852404438	1e-14	-47.2743672331387
	13.1219852404438	-62.028670081768	1.41774956270824
	72.5
 109	7.42907825095005e-08	0.569255554249696	6.89639708214253
	57.7650967021229	89.8121314238878	0
	14.7349032978771	1e-14	-70.5694832824623
	14.7349032978771	-61.9320088866498	1.45160166333672
	72.5
 110	7.43170172552028e-08	0.5759969137397	7.04119296502996
	56.860502756918	97.0733338659366	0
	15.639497243082	1e-14	-77.7052353890105
	15.639497243082	-61.8828552207347	1.46879213003623
	72.5
 111	7.43694867466074e-08	0.589713064204295	7.22582424207106
	54.9463543777745	106.148349991643	0
	17.5536456222255	1e-14	-86.8529486318515
	17.5536456222255	-61.7828107288925	1.50376831372095
	72.5
 112	7.44324867072439e-08	0.606612146428574	7.33975947353662
	52.5402911837804	110.988956748283	0
	19.9597088162196	1e-14	-91.6405903628077
	19.9597088162196	-61.6595388764777	1.54686097339286
	72.5
 113	7.45186818636035e-08	0.63051946305281	7.421697425401
	49.1744228812616	113.221704707098	0
	23.3255771187384	1e-14	-93.86823855065
	23.3255771187384	-61.4851339930044	1.60782463078467
	72.5
 114	7.46262997534718e-08	0.661660475335233	7.48766504958823
	44.9356749107155	113.736483862556	0
	27.5643250892845	1e-14	-94.4405126463155
	27.5643250892845	-61.2577864560464	1.68723421210484
	72.5
 115	7.47881621106334e-08	0.711204311633299	7.57818876008623
	38.5517043347492	113.719168660824	0
	33.9482956652508	1e-14	-94.3856304855447
	33.9482956652508	-60.8950505985046	1.81357099466491
	72.5
 116	7.5054029309901e-08	0.79960244455223	7.73785095288083
	28.0766785568392	113.513775853468	0
	44.4233214431608	1e-14	-94.2429353035791
	44.4233214431608	-60.2423226351978	2.03898623360819
	72.5
 117	7.54020146549505e-08	0.928371691465719	7.9779275787834
	14.3973413807625	113.202813154196	0
	58.1026586192375	1e-14	-93.8762278330591
	58.1026586192375	-59.2742699109314	2.36734781323758
	72.5
 118	7.575e-08	1.07117669432607	9.30093181537208
	1.80093181537208	88.6754801075895	0
	70.6990681846279	1e-14	-69.214519303914
	70.6990681846279	-58.1698899887728	2.73150057053147
	72.5
 119	7.57709649638117e-08	1.08020112404283	8.95201838509648
	1.45201838509648	68.7138878561177	0
	71.0479816149035	1e-14	-68.7313934645384
	71.0479816149035	-58.0986939111335	2.75451286630922
	72.5
 120	7.58128948914351e-08	1.09827835970235	8.40251462923263
	0.902514629232627	40.0088522608762	0
	71.5974853707674	1e-14	-39.9909477743012
	71.5974853707674	-57.9554230377736	2.80060981724098
	72.5
 121	7.58967547466819e-08	1.13452467884899	7.85942967345905
	0.359429673459047	14.8811302667055	0
	72.140570326541	1e-14	-14.8915121881862
	72.140570326541	-57.6638007328778	2.89303793106493
	72.5
 122	7.59386846743053e-08	1.15266312655333	7.74330557590106
	0.243305575901061	9.92192631578149	0
	72.2566944240989	1e-14	-9.91109915106544
	72.2566944240989	-57.5155246921449	2.93929097271099
	72.5
 123	7.60225445295521e-08	1.18891101431858	7.61682342723556
	0.116823427235559	4.68500717110142	0
	72.3831765727644	1e-14	-4.69235347402387
	72.3831765727644	-57.2141946331274	3.03172308651237
	72.5
 124	7.61458385219641e-08	1.24208796536805	7.55156857573309
	0.0515685757330857	2.05010777075825	0
	72.4484314242669	1e-14	-2.04146147245814
	72.4484314242669	-56.7597342911903	3.16732431168853
	72.5
 125	7.61961991980286e-08	1.26376065477409	7.54365294642267
	0.043652946422668	1.73357878875804	0
	72.4563470535773	1e-14	-1.74222508608369
	72.4563470535773	-56.5702176240287	3.22258966967392
	72.5
 126	7.62969205501576e-08	1.30701193147621	7.5362216510905
	0.0362216510905	1.43702587059731	0
	72.4637783489095	1e-14	-1.42837290480189
	72.4637783489095	-56.1844676227966	3.33288042526433
	72.5
 127	7.64983632544156e-08	1.39311977153792	7.53405349852297
	0.0340534985229652	1.350614723841	0
	72.465946501477	1e-14	-1.359261241248
	72.465946501477	-55.386252383716	3.55245541742169
	72.5
 128	7.69012486629316e-08	1.56365339923454	7.53831054179378
	0.038310541793777	1.52032549961975	0
	72.4616894582062	1e-14	-1.51160891452508
	72.4616894582062	-53.6841142216048	3.98731616804807
	72.5
 129	7.77070194799635e-08	1.89728429701337	7.54671333860766
	0.0467133386076597	1.85587798718911	0
	72.4532866613923	1e-14	-1.86454862624818
	72.4532866613923	-49.86662926716	4.8380749573841
	72.5
 130	7.93185611140273e-08	2.52948754177646	7.56256469669299
	0.0625646966929878	2.4909289673462	0
	72.437435303307	1e-14	-2.48225694460814
	72.437435303307	-40.6652268199173	6.45019323152997
	72.5
 131	8.16340999866623e-08	3.3384171493747	7.58280952631908
	0.0828095263190818	3.3058967875307	0
	72.4171904736809	1e-14	-3.31456831747556
	72.4171904736809	-24.1478165191824	8.51296373090547
	72.5
 132	8.35406965659174e-08	3.90063125270302	7.59684122610676
	0.0968412261067613	3.87332047963596	0
	72.4031587738932	1e-14	-3.86464810731787
	72.4031587738932	-8.03125042754256	9.9466096943927
	72.5
 133	8.49511208884534e-08	4.24775370737157	7.60551368507005
	0.105513685070051	4.2250756554421	0
	72.3944863149299	1e-14	-4.23374786471282
	72.3944863149299	5.08016750960271	10.8317719537975
	72.5
 134	8.62739361571609e-08	4.5156652686911	7.61220915205763
	0.11220915205763	4.49719399138687	0
	72.3877908479424	1e-14	-4.48852170691005
	72.3877908479424	18.0956658501334	11.5149464351623
	72.5
 135	8.78118198786352e-08	4.75330709421328	7.61817886263772
	0.11817886263772	4.74022023484417	0
	72.3818211373623	1e-14	-4.74889249727367
	72.3818211373623	33.8661224112851	12.1209330902439
	72.5
 136	8.92809099393176e-08	4.90377771900219	7.62199439399613
	0.121994393996133	4.89574972763436	0
	72.3780056060039	1e-14	-4.8870774423701
	72.3780056060039	49.3425111366905	12.5046331834556
	72.5
 137	9.075e-08	4.9780570344856	7.62394434452935
	0.123944344529349	4.97529414371732	0
	72.3760556554707	1e-14	-4.98396642648274
	72.3760556554707	64.9758651120828	12.6940454379383
	72.5
 138	9.08515824074396e-08	4.97979751219174	4.69020904886233
	1.25350534644521	7.07854047606725	0
	71.2464946535548	1e-14	-26.3760708308989
	71.2464946535548	66.056600819276	12.6984836560889
	72.5
 139	9.10191315502925e-08	4.98161012005021	-0.00278333479054993
	3.26247867690772	1e-14	0
	69.2375213230923	1e-14	-19.2992258795071
	69.2375213230923	67.8367818101558	12.703105806128
	72.5
 140	9.12438391480485e-08	4.98064868126347	-6.10109046569236
	6.15247545624939	1e-14	0
	66.3475245437506	1e-14	-19.2975303548367
	66.3475245437506	70.215814442811	12.7006541372219
	72.5
 141	9.16701654867762e-08	4.96800224578967	-17.6718131616884
	11.634806309359	1e-14	0
	60.865193690641	1e-14	-19.2992258795155
	60.865193690641	74.6956638249165	12.6684057267637
	72.5
 142	9.20477332560241e-08	4.94501035352739	-27.9208575735508
	16.488472667414	1e-14	0
	56.011527332586	1e-14	-19.2975303548469
	56.011527332586	78.6187728545953	12.6097764014948
	72.5
 143	9.275e-08	4.87304713988404	-46.9920299013093
	25.5079700986907	1e-14	0
	46.9920299013093	1e-14	-19.2992258795288
	46.9920299013093	85.7702616258326	12.4262702067043
	72.5
 144	9.27774375188458e-08	4.86946792142022	-46.9591618119432
	25.5408381880568	1e-14	0
	46.9591618119432	1e-14	-2.55511167779332e-11
	46.9591618119432	86.045402954629	12.4171431996216
	72.5
 145	9.28130570683616e-08	4.86479763885564	-46.9165127256815
	25.5834872743185	1e-14	0
	46.9165127256815	1e-14	-2.55937493420788e-11
	46.9165127256815	86.4023556001787	12.4052339790819
	72.5
 146	9.28825257785012e-08	4.85555288919221	-46.8334532318848
	25.6665467681152	1e-14	0
	46.8334532318848	1e-14	-2.567901447037e-11
	46.8334532318848	87.0971434175668	12.3816598674401
	72.5
 147	9.30214631987804e-08	4.83652449262243	-46.6678174271163
	25.8321825728837	1e-14	0
	46.6678174271163	1e-14	-2.58421825728837e-11
	46.6678174271163	88.48116593033	12.3331374561872
	72.5
 148	9.32993380393386e-08	4.79632649309249	-46.3385701538273
	26.1614298461727	1e-14	0
	46.3385701538273	1e-14	-2.61714298461726e-11
	46.3385701538273	91.226242873845	12.2306325573858
	72.5