Title: // Class-D RF Power Amplifier - 300W, 13.56 MHz
Date: 9:35:45 PM, Sat Jun 27, 2026
Plotname: Transient Analysis `tran': time = (0 s -> 1 us)
Flags: real
No. Variables:       13
No. Points:     1217
Variables:	0	time	s
		1	L1:i	A plot=0 grid=0
		2	M1:vgs	V plot=0 grid=0
		3	M1:vds	V plot=0 grid=0
		4	M1:id	A plot=0 grid=0
		5	M2:vgs	V plot=0 grid=0
		6	M2:vds	V plot=0 grid=0
		7	M2:id	A plot=0 grid=0
		8	Vdd:i	A plot=0 grid=0
		9	mid	V plot=0 grid=0
		10	lc_out	V plot=0 grid=0
		11	rload	V plot=0 grid=0
		12	vdd	V plot=0 grid=0
Values:
 0	0	0	-33.391
	39.109	2.859e-12	0
	33.391	2.859e-12	-4.1968e-11
	33.391	33.391	0
	72.5
 1	1.25e-10	0.00015066149190813	-33.1280133435445
	38.7469866564555	2.859e-12	0
	33.7530133435445	2.859e-12	2.09478999995827
	33.7530133435445	33.3914242563501	0.000384186804365731
	72.5
 2	2.12853695141411e-10	0.000331008813450121	-32.9435251389611
	38.4922063853318	2.859e-12	0
	34.0077936146682	2.859e-12	2.09478999995864
	34.0077936146682	33.3919460150996	0.000844072474297808
	72.5
 3	3.88561085424233e-10	0.000840632578060001	-32.5750702515674
	37.9821243213115	2.859e-12	0
	34.5178756786885	2.859e-12	2.09478999995926
	34.5178756786885	33.3934645621368	0.002143613074053
	72.5
 4	7.39975865989878e-10	0.0027527040869188	-31.8400696283069
	36.9600510417437	2.859e-12	0
	35.5399489582563	2.859e-12	2.09478999996011
	35.5399489582563	33.399683697267	0.00701939542164293
	72.5
 5	1.44280542712117e-09	0.0101353843400167	-30.3765176710905
	34.9094551933037	2.859e-12	0
	37.5905448066963	2.859e-12	2.09478999996228
	37.5905448066963	33.4281458399261	0.0258452300670427
	72.5
 6	2e-09	0.0193422054941698	-29.2211100912647
	33.2788899087353	2.859e-12	0
	39.2211100912647	2.859e-12	2.09478999996382
	39.2211100912647	33.4690963754406	0.0493226240101329
	72.5
 7	2.06912612571801e-09	0.0206658825975818	-29.2203350877511
	33.2796649122489	2.859e-12	0
	39.2203350877511	2.859e-12	-3.61386649122489e-11
	39.2203350877511	33.4755112252427	0.0526980006238335
	72.5
 8	2.20102770806763e-09	0.0231885121610198	-29.2187659781805
	33.2812340218195	2.859e-12	0
	39.2187659781805	2.859e-12	-3.61402340218195e-11
	39.2187659781805	33.4880976158014	0.0591307060106006
	72.5
 9	2.33265712673691e-09	0.0256995305210606	-29.21702038645
	33.28297961355	2.859e-12	0
	39.21702038645	2.859e-12	-3.61417562544375e-11
	39.21702038645	33.5013465686175	0.0655338028287046
	72.5
 10	2.59591596407546e-09	0.0307006619673542	-29.2129927736412
	33.2870072263588	2.859e-12	0
	39.2129927736412	2.859e-12	-3.61460072263588e-11
	39.2129927736412	33.5298950379547	0.0782866880167533
	72.5
 11	3.12243363875257e-09	0.0406080506332428	-29.2028084405586
	33.2971915594414	2.859e-12	0
	39.2028084405586	2.859e-12	-3.61561915594414e-11
	39.2028084405586	33.5951006849492	0.103550529114769
	72.5
 12	4.17546898810678e-09	0.059955284184385	-29.1740847560144
	33.3259152439856	2.859e-12	0
	39.1740847560144	2.859e-12	-3.61849152439856e-11
	39.1740847560144	33.7570922437087	0.152885974670182
	72.5
 13	6.2815396868152e-09	0.0961144145645677	-29.0849412145421
	33.4150587854579	2.859e-12	0
	39.0849412145421	2.859e-12	-3.62740587854579e-11
	39.0849412145421	34.1989723022329	0.245091757139648
	72.5
 14	1.0493681084232e-08	0.153800413096983	-28.7995734077891
	33.7004265922109	2.859e-12	0
	38.7995734077891	2.859e-12	-3.65594265922109e-11
	38.7995734077891	35.4659403127688	0.392191053397307
	72.5
 15	1.62326457635254e-08	0.191337882374217	-28.2631307567188
	34.2368692432812	2.859e-12	0
	38.2631307567188	2.859e-12	-3.70958692432812e-11
	38.2631307567188	37.6688273351499	0.487911600054254
	72.5
 16	2.18806810867419e-08	0.176731287184325	-27.7008367205484
	34.7991632794516	2.859e-12	0
	37.7008367205484	2.859e-12	-3.76581632794516e-11
	37.7008367205484	39.8431418696004	0.45066478232003
	72.5
 17	2.7375e-08	0.118971456933143	-27.2619173128556
	35.2380826871444	2.859e-12	0
	37.2619173128556	2.859e-12	-3.80970826871445e-11
	37.2619173128556	41.4242427915098	0.303377215179515
	72.5
 18	2.7625e-08	0.114837250483062	-27.7648848413438
	35.9851151586562	2.859e-12	0
	36.5148848413438	2.859e-12	-2.09479000003883
	36.5148848413438	41.4747842089361	0.292834988731809
	72.5
 19	2.79357767591447e-08	0.109187806166046	-28.3933884997169
	36.9104952960063	2.859e-12	0
	35.5895047039937	2.859e-12	-2.09479000003981
	35.5895047039937	41.534443850473	0.278428905723418
	72.5
 20	2.84865105347427e-08	0.0966932087338773	-29.5154470321183
	38.5421056415954	2.859e-12	0
	33.9578943584046	2.859e-12	-2.09479000004139
	33.9578943584046	41.6232056362335	0.246567682271387
	72.5
 21	2.9375e-08	0.0699957955759138	-31.3508049309735
	41.1491950690265	2.859e-12	0
	31.3508049309735	2.859e-12	-2.094790000044
	31.3508049309735	41.7126819393865	0.17848927871858
	72.5
 22	2.94706214978609e-08	0.0666901380888587	-31.3474175402806
	41.1525824597194	2.859e-12	0
	31.3474175402806	2.859e-12	-4.40115824597194e-11
	31.3474175402806	41.7178206210852	0.17005985212659
	72.5
 23	2.96343756129959e-08	0.0610254897679177	-31.3418631814103
	41.1581368185897	2.859e-12	0
	31.3418631814103	2.859e-12	-4.40171368185897e-11
	31.3418631814103	41.7256246610887	0.15561499890819
	72.5
 24	2.98100871045985e-08	0.0549399409956883	-31.3364516565474
	41.1635483434526	2.859e-12	0
	31.3364516565474	2.859e-12	-4.40225633724367e-11
	31.3364516565474	41.731783595564	0.140096849539005
	72.5
 25	3.01615100878038e-08	0.0427536424331344	-31.3273341257947
	41.1726658742053	2.859e-12	0
	31.3273341257947	2.859e-12	-4.40316658742053e-11
	31.3273341257947	41.7372316943663	0.109021788204493
	72.5
 26	3.08643560542144e-08	0.0183703453905891	-31.3159253545423
	41.1840746454577	2.859e-12	0
	31.3159253545423	2.859e-12	-4.40430746454577e-11
	31.3159253545423	41.7207572106235	0.0468443807460022
	72.5
 27	3.22700479870355e-08	-0.0300423478219176	-31.3202824567121
	41.1797175432879	2.859e-12	0
	31.3202824567121	2.859e-12	-4.40387175432879e-11
	31.3202824567121	41.5798503326576	-0.07660798694589
	72.5
 28	3.45725239935177e-08	-0.106427971438863	-31.4037380320163
	41.0962619679837	2.859e-12	0
	31.4037380320163	2.859e-12	-4.39552619679837e-11
	31.4037380320163	41.0507907842483	-0.2713913271691
	72.5
 29	3.6875e-08	-0.176449237098293	-31.5767950348834
	40.9232049651166	2.859e-12	0
	31.5767950348834	2.859e-12	-4.37822049651166e-11
	31.5767950348834	40.1793450829471	-0.449945554600647
	72.5
 30	3.70136611261421e-08	-0.180317878497729	-31.744487523147
	40.755512476853	2.859e-12	0.693305630710757
	31.744487523147	2.859e-12	-4.3614512476853e-11
	31.744487523147	40.116282004621	-0.45981059016921
	72.5
 31	3.72234544560823e-08	-0.186048483416457	-31.9987462112516
	40.5012537887484	2.859e-12	1.7422722804117
	31.9987462112516	2.859e-12	-4.33602537887484e-11
	31.9987462112516	40.019901707776	-0.474423632711966
	72.5
 32	3.7537856503265e-08	-0.194181529697195	-32.3683603784836
	40.1316396215164	2.859e-12	3.31428251632497
	32.3683603784836	0.154691151241918	-4.29906396215164e-11
	32.3683603784836	39.8719868072886	-0.495162900727847
	72.5
 33	3.76390127457357e-08	-0.196693067015046	-32.4262581602695
	40.0737418397305	2.859e-12	3.82006372867866
	32.4262581602695	2.27740928940298	-4.29327418397305e-11
	32.4262581602695	39.8235191898083	-0.501567320888367
	72.5
 34	3.78413252306772e-08	-0.201859035462372	-31.7970824792768
	40.7029175207232	2.859e-12	4.83162615338603
	31.7970824792768	13.9929142971063	-4.35619175207232e-11
	31.7970824792768	39.724567176405	-0.51474054042905
	72.5
 35	3.80053874403425e-08	-0.206648855864562	-30.0473656576524
	42.4526343423476	2.859e-12	5.65193720171268
	30.0473656576524	30.8068685034177	-4.53116343423476e-11
	30.0473656576524	39.6410545095743	-0.526954582454633
	72.5
 36	3.81637872356011e-08	-0.212564374109745	-26.7375298170087
	45.7624701829913	2.859e-12	6.44393617800542
	26.7375298170087	53.2552226687429	-4.86214701829913e-11
	26.7375298170087	39.555328140392	-0.54203915397985
	72.5
 37	3.8308550895015e-08	-0.219882256496641	-21.9532138300393
	50.5467861699607	2.859e-12	7.16775447507491
	21.9532138300393	79.1108616082244	-5.34057861699607e-11
	21.9532138300393	39.4700690756801	-0.560699754066434
	72.5
 38	3.84518857273474e-08	-0.229810440966383	-15.3291323111838
	57.1708676888162	2.859e-12	7.88442863673679
	15.3291323111838	109.735663043817	-6.00298676888162e-11
	15.3291323111838	39.3761813250781	-0.586016624464277
	72.5
 39	3.85950043468318e-08	-0.243256361100162	-6.94249726383143
	65.5575027361686	2.859e-12	8.60002173415901
	6.94249726383143	145.302403269775	-6.84165027361685e-11
	6.94249726383143	39.2698679865713	-0.620303720805413
	72.5
 40	3.86353714748756e-08	-0.247767800123206	-4.5036071843437
	67.9963928156563	2.859e-12	8.8018573743782
	4.5036071843437	149.661060546083	-7.08553928156563e-11
	4.5036071843437	39.237277396649	-0.631807890314175
	72.5
 41	3.86508097142989e-08	-0.249575371269843	-3.70278416143417
	68.7972158385658	2.859e-12	8.87904857149429
	3.70278416143417	140.262266740521	-7.16562158385658e-11
	3.70278416143417	39.2244998955916	-0.6364171967381
	72.5
 42	3.86816379691292e-08	-0.253289402315403	-2.43028175642594
	70.0697182435741	2.859e-12	9.03318984564602
	2.43028175642594	110.756834554927	-7.29287182435741e-11
	2.43028175642594	39.1985371553773	-0.645887975904278
	72.5
 43	3.87117898404943e-08	-0.257026577644992	-1.56875796763603
	70.931242032364	2.859e-12	9.18394920247165
	1.56875796763603	80.3737667937528	-7.3790242032364e-11
	1.56875796763603	39.1726382287301	-0.65541777299473
	72.5
 44	3.87563957329949e-08	-0.26267090149368	-0.809690218091623
	71.6903097819084	2.859e-12	9.40697866497448
	0.809690218091623	46.2326509023644	-7.45493097819084e-11
	0.809690218091623	39.133583958355	-0.669810798808885
	72.5
 45	3.87925247748524e-08	-0.267303525845089	-0.485361149336723
	72.0146388506633	2.859e-12	9.58762387426215
	0.485361149336723	29.3332822449086	-7.48736388506633e-11
	0.485361149336723	39.1014011191645	-0.681623990904977
	72.5
 46	3.88289739995644e-08	-0.272004225758587	-0.299726945929108
	72.2002730540709	2.859e-12	9.76986999782179
	0.299726945929108	18.9167789295204	-7.50592730540709e-11
	0.299726945929108	39.0685022605264	-0.693610775684397
	72.5
 47	3.88519869997822e-08	-0.27497994070748	-0.227334222509684
	72.2726657774903	2.859e-12	9.88493499891089
	0.227334222509684	14.6825414947425	-7.51316657774903e-11
	0.227334222509684	39.0475229674684	-0.701198848804073
	72.5
 48	3.8875e-08	-0.277958770804651	-0.176336261414095
	72.3236637385859	2.859e-12	9.99999999999999
	0.176336261414095	11.6300667378536	-7.51826637385859e-11
	0.176336261414095	39.0263899521159	-0.708794865551861
	72.5
 49	3.88967636142503e-08	-0.280778687186952	-0.132322441703485
	72.3676775582965	2.859e-12	10
	0.132322441703485	8.75552764125063	-7.52266775582965e-11
	0.132322441703485	39.0061975503673	-0.715985652326728
	72.5
 50	3.89211919192673e-08	-0.283944610992213	-0.0912964470751487
	72.4087035529248	2.859e-12	10
	0.0912964470751487	6.05914348991223	-7.52677035529248e-11
	0.0912964470751487	38.9834486649	-0.724058758030142
	72.5
 51	3.8945789058614e-08	-0.287133358283988	-0.0634459410018249
	72.4365540589982	2.859e-12	10
	0.0634459410018249	4.21936666389091	-7.52955540589982e-11
	0.0634459410018249	38.960373865276	-0.732190063624169
	72.5
 52	3.89949833373074e-08	-0.293510070575656	-0.0310190408822656
	72.4689809591177	2.859e-12	10
	0.0310190408822656	2.06776499235295	-7.53279809591177e-11
	0.0310190408822656	38.9137256588675	-0.748450679967922
	72.5
 53	3.90741705931589e-08	-0.303765213042466	-0.0110168942621852
	72.4889831057378	2.859e-12	10
	0.0110168942621852	0.735471327100049	-7.53479831057378e-11
	0.0110168942621852	38.8372595235584	-0.774601293258287
	72.5
 54	3.91783954898552e-08	-0.317236055234046	-0.00538573618746328
	72.4946142638125	2.859e-12	10
	0.00538573618746328	0.359691266609427	-7.53536142638125e-11
	0.00538573618746328	38.7340537769972	-0.808951940846817
	72.5
 55	3.93172954910176e-08	-0.33513315640755	-0.00487087655819093
	72.4951291234418	2.859e-12	10
	0.00487087655819093	0.325318105374686	-7.53541291234418e-11
	0.00487087655819093	38.5920182070309	-0.854589548839253
	72.5
 56	3.95240541969031e-08	-0.361648591891889	-0.00529341232999572
	72.49470658767	2.859e-12	10
	0.00529341232999572	0.35352771268386	-7.535370658767e-11
	0.00529341232999572	38.3711424714788	-0.922203909324316
	72.5
 57	3.99083491221669e-08	-0.410507199144791	-0.00601854045342696
	72.4939814595466	2.859e-12	10
	0.00601854045342696	0.401935136664323	-7.53529814595466e-11
	0.00601854045342696	37.930876903826	-1.04679335781922
	72.5
 58	4.06769389726945e-08	-0.506382284401234	-0.00746447242097744
	72.492535527579	2.859e-12	10
	0.00746447242097744	0.498446030397051	-7.5351535527579e-11
	0.00746447242097744	36.9367018714125	-1.29127482522315
	72.5
 59	4.22141186737498e-08	-0.689362453194757	-0.0102099021201425
	72.4897900978799	2.859e-12	10
	0.0102099021201425	0.681637842297953	-7.53487900978798e-11
	0.0102099021201425	34.5147039960143	-1.75787425564663
	72.5
 60	4.46198555048717e-08	-0.946560141590301	-0.0140863291374291
	72.4859136708626	2.859e-12	10
	0.0140863291374291	0.940171764516521	-7.53449136708626e-11
	0.0140863291374291	29.672042189394	-2.41372836105527
	72.5
 61	4.7705383720741e-08	-1.21155873505105	-0.0180836473589159
	72.4819163526411	2.859e-12	10
	0.0180836473589159	1.20661521049381	-7.53409163526411e-11
	0.0180836473589159	21.9123205770511	-3.08947477438017
	72.5
 62	5.03712148536015e-08	-1.37162482427778	-0.0205149585126543
	72.4794850414874	2.859e-12	10
	0.0205149585126543	1.3685995246611	-7.53384850414873e-11
	0.0205149585126543	14.1782678427653	-3.49764330190834
	72.5
 63	5.26257015446245e-08	-1.45169830344494	-0.0217369288357186
	72.4782630711643	2.859e-12	10
	0.0217369288357186	1.44999067045783	-7.53372630711643e-11
	0.0217369288357186	7.20265024119926	-3.70183067378459
	72.5
 64	5.45272905905167e-08	-1.47812339472467	-0.0221560987333904
	72.4778439012666	2.859e-12	10
	0.0221560987333904	1.47790675521916	-7.53368439012666e-11
	0.0221560987333904	1.20833344178004	-3.76921465654791
	72.5
 65	5.63932049143493e-08	-1.46731314432143	-0.0220105088986805
	72.4779894911013	2.859e-12	10
	0.0220105088986805	1.4682108850408	-7.53369894911013e-11
	0.0220105088986805	-4.61083683261297	-3.74164851801965
	72.5
 66	5.82412052431125e-08	-1.42155473114084	-0.0213437907561926
	72.4786562092438	2.859e-12	10
	0.0213437907561926	1.423806711409	-7.53376562092438e-11
	0.0213437907561926	-10.1735452019895	-3.62496456440914
	72.5
 67	6.0131519348431e-08	-1.34038652277097	-0.0201410391111016
	72.4798589608889	2.859e-12	10
	0.0201410391111016	1.34369116410711	-7.53388589608889e-11
	0.0201410391111016	-15.5207540475939	-3.41798563306597
	72.5
 68	6.23436871975947e-08	-1.20489233940981	-0.0181275509209799
	72.481872449079	2.859e-12	10
	0.0181275509209799	1.20954076308937	-7.5340872449079e-11
	0.0181275509209799	-21.165226929036	-3.07247546549502
	72.5
 69	6.425e-08	-1.05684684408677	-0.0159187205182594
	72.4840812794817	2.859e-12	10
	0.0159187205182594	1.06233012722362	-7.53430812794817e-11
	0.0159187205182594	-25.3745006619209	-2.69495945242126
	72.5
 70	6.43784871844002e-08	-1.04587382520738	0.0223979381472249
	72.5223979381472	2.859e-12	9.37996201614642
	0.0223979381472249	1.358834654871	-7.53813979381472e-11
	-0.0223979381472249	-25.6324373000311	-2.66697825427883
	72.5
 71	6.45778886759403e-08	-1.02872285659343	0.0522272905333603
	72.5522272905334	2.859e-12	8.41278391083205
	0.0522272905333603	2.66925582319424	-7.54112272905334e-11
	-0.0522272905333603	-26.0287849605923	-2.62324328431323
	72.5
 72	6.485738099765e-08	-1.004265192445	0.0633002760111263
	72.5633002760111	2.859e-12	7.02639528776098
	0.0633002760111263	2.37754999008361	-7.54223002760111e-11
	-0.0633002760111263	-26.5708908423691	-2.56087624073475
	72.5
 73	6.52599110436062e-08	-0.968211799838053	0.110754814161235
	72.6107548141612	2.859e-12	5.06119959613046
	0.110754814161235	2.01576954187427	-7.54697548141612e-11
	-0.110754814161235	-27.3236156001055	-2.46894008958703
	72.5
 74	6.56545326613642e-08	-0.93203844393158	0.261425885515702
	72.7614258855157	2.859e-12	3.23876257869485
	0.261425885515702	0.0513946542497977	-7.56204258855157e-11
	-0.261425885515702	-28.0291180375881	-2.37669803202553
	72.5
 75	6.57289660786937e-08	-0.925134183751965	0.290315389469423
	72.7903153894694	2.859e-12	2.89548499600117
	0.290315389469423	0	-7.56493153894694e-11
	-0.290315389469423	-28.1585714350336	-2.35909216856751
	72.5
 76	6.58778329133526e-08	-0.911246885476437	0.328574264685638
	72.8285742646856	2.859e-12	2.18940969792258
	0.328574264685638	0	-7.56875742646856e-11
	-0.328574264685638	-28.4139846084774	-2.32367955796491
	72.5
 77	6.60639164566763e-08	-0.893738108715029	0.375546410877593
	72.8755464108776	2.859e-12	1.30596412749606
	0.375546410877593	0	-7.57345464108776e-11
	-0.375546410877593	-28.7266542525925	-2.27903217722332
	72.5
 78	6.625e-08	-0.876066597078524	0.42146691342764
	72.9214669134276	2.859e-12	0.42146691342764
	0.42146691342764	0	-7.57804669134276e-11
	-0.42146691342764	-29.0319445900949	-2.23396982255024
	72.5
 79	6.62912461757045e-08	-0.872121690395477	0.414251248246916
	72.9142512482469	2.859e-12	0.414251248246916
	0.414251248246916	0	-7.57732512482469e-11
	-0.414251248246916	-29.098420576942	-2.22391031050847
	72.5
 80	6.63679532468991e-08	-0.864767760754846	0.400764377857948
	72.900764377858	2.859e-12	0.400764377857948
	0.400764377857948	0	-7.57597643778579e-11
	-0.400764377857948	-29.2214039103867	-2.20515778992486
	72.5
 81	6.64371920118249e-08	-0.858099996549835	0.388556265442214
	72.8885562654422	2.859e-12	0.388556265442214
	0.388556265442214	0	-7.57475562654422e-11
	-0.388556265442214	-29.3313045538408	-2.18815499120208
	72.5
 82	6.65756695416765e-08	-0.844680680494407	0.364054751845373
	72.8640547518454	2.859e-12	0.364054751845373
	0.364054751845373	0	-7.57230547518454e-11
	-0.364054751845373	-29.5479330234697	-2.15393573526074
	72.5
 83	6.68526246013796e-08	-0.817514135647799	0.314846154423829
	72.8148461544238	2.859e-12	0.314846154423829
	0.314846154423829	0	-7.56738461544238e-11
	-0.314846154423829	-29.968395849582	-2.08466104590189
	72.5
 84	6.74065347207859e-08	-0.761929154188541	0.216601259026902
	72.7166012590269	2.859e-12	0.216601259026902
	0.216601259026902	0	-7.55756012590269e-11
	-0.216601259026902	-30.7573665099127	-1.94291934318078
	72.5
 85	6.85143549595984e-08	-0.646255513511957	0.0275169691964832
	72.5275169691965	2.859e-12	0.0275169691964832
	0.0275169691964832	0	-7.53865169691965e-11
	-0.0275169691964832	-32.121989656894	-1.64795155945549
	72.5
 86	7.07299954372235e-08	-0.401231237223842	-0.281959181785187
	72.2180408182148	2.859e-12	0
	0.281959181785187	2.859e-12	-7.50770408182148e-11
	0.281959181785187	-33.9661714169403	-1.0231396549208
	72.5
 87	7.22399977186118e-08	-0.227070797783378	-0.416947928712276
	72.0830520712877	2.859e-12	0
	0.416947928712276	2.859e-12	-7.49420520712877e-11
	0.416947928712276	-34.5313575157946	-0.579030534347614
	72.5
 88	7.375e-08	-0.051008788692892	-0.478119889077352
	72.0218801109227	2.859e-12	0
	0.478119889077352	2.859e-12	-7.48808801109226e-11
	0.478119889077352	-34.5291023819613	-0.130072411166875
	72.5
 89	7.38674308073373e-08	-0.0372406431653978	-0.0825999584505323
	71.830246004863	2.859e-12	0
	0.669753995136978	2.859e-12	2.0947899999253
	0.669753995136978	-34.5032982891485	-0.0949636400717645
	72.5
 90	7.40552225788273e-08	-0.0151372457104742	0.536110037385509
	71.5099971432488	2.859e-12	0
	0.990002856751237	2.859e-12	2.09478999992562
	0.990002856751237	-34.4573986006799	-0.0385999765617092
	72.5
 91	7.42973067452173e-08	0.013612502873879	1.31284379502522
	71.0763100689386	2.859e-12	0
	1.42368993106145	2.859e-12	2.09478999992617
	1.42368993106145	-34.3844794184903	0.0347118823283915
	72.5
 92	7.47814750779973e-08	0.0719910052604536	2.81132782000556
	70.1539524300191	2.859e-12	0
	2.34604756998095	2.859e-12	2.09478999992686
	2.34604756998095	-34.1915222078157	0.183577063414157
	72.5
 93	7.49025406932476e-08	0.0867733385581198	3.17096646729629
	69.9082630010581	0.00595047282061611	0
	2.59173699894191	2.859e-12	2.08890251824007
	2.59173699894191	-34.1333794887958	0.221272013323206
	72.5
 94	7.51446719237483e-08	0.116627899725483	3.72184310822621
	69.2484834894846	1.67036203984982	0
	3.25151651051537	2.859e-12	0.424630564658449
	3.25151651051537	-34.0048569619563	0.297401144299981
	72.5
 95	7.53729948825885e-08	0.145234724219439	4.06239997135106
	68.4474255584084	4.1768129534428	0
	4.05257444159162	2.859e-12	-2.08225484498548
	4.05257444159162	-33.8683039753385	0.37034854675957
	72.5
 96	7.575e-08	0.193777505562584	4.27067352510398
	66.770673525104	6.26599154712096	0
	5.72932647489602	2.859e-12	-4.17100403439403
	5.72932647489602	-33.6085524940912	0.494132639184589
	72.5
 97	7.57851784938992e-08	0.19839491383236	4.20297523033917
	66.7029752303392	5.54059793846128	0
	5.79702476966083	2.859e-12	-5.54104874664323
	5.79702476966083	-33.5819286683951	0.505907030272519
	72.5
 98	7.58555354816975e-08	0.207637528757196	4.08241933408946
	66.5824193340895	4.35928405232136	0
	5.91758066591054	2.859e-12	-4.3588151335699
	5.91758066591054	-33.5279693411782	0.529475698330849
	72.5
 99	7.59540189619186e-08	0.220594189210304	3.95427302685694
	66.4542730268569	3.25870038751696	0
	6.04572697314306	2.859e-12	-3.25890498495897
	6.04572697314306	-33.4500641656116	0.562515182486275
	72.5
 100	7.61509859223608e-08	0.246526641455082	3.78183952293051
	66.2818395229305	2.03000542490756	0
	6.21816047706949	2.859e-12	-2.02952145222531
	6.21816047706949	-33.2860562313498	0.628642935710459
	72.5
 101	7.63572556502783e-08	0.273661158165459	3.67250391213124
	66.1725039121312	1.40085681564797	0
	6.32749608786876	2.859e-12	-1.40116613370275
	6.32749608786876	-33.1027153457662	0.69783595332192
	72.5
 102	7.66314364547383e-08	0.309616457937728	3.58296362103609
	66.0829636210361	0.972282154535103	0
	6.41703637896391	2.859e-12	-0.971615286198462
	6.41703637896391	-32.8408979207016	0.789521967741207
	72.5
 103	7.69663539384593e-08	0.353281094755716	3.52008346845427
	66.0200834684543	0.717958250957176	0
	6.47991653154573	2.859e-12	-0.718476688062255
	6.47991653154573	-32.4933658837169	0.900866791627075
	72.5
 104	7.7430651015382e-08	0.413215052309015	3.4763350738448
	65.9763350738448	0.563717319242193	0
	6.5236649261552	2.859e-12	-0.562987554161891
	6.5236649261552	-31.9619365041318	1.05369838338799
	72.5
 105	7.8045478241692e-08	0.491287718872126	3.45793869068396
	65.957938690684	0.504422334886892	0
	6.54206130931604	2.859e-12	-0.504944675454133
	6.54206130931604	-31.1712417044012	1.25278368312392
	72.5
 106	7.88847828790127e-08	0.595044192112609	3.46597322529634
	65.9659732252963	0.529913964903925	0
	6.53402677470366	2.859e-12	-0.529110760110983
	6.53402677470366	-29.9367016225752	1.51736268988715
	72.5
 107	8.00089117482452e-08	0.72801905112272	3.498002888866
	65.998002888866	0.637781670649964	0
	6.501997111134	2.859e-12	-0.638285255987104
	6.501997111134	-28.0153885113109	1.85644858036294
	72.5
 108	8.15319548519468e-08	0.895336087895489	3.54539131582419
	66.0453913158242	0.815690140996954	0
	6.45460868417581	2.859e-12	-0.814944333102572
	6.45460868417581	-24.9584749086678	2.2831070241335
	72.5
 109	8.36633814489764e-08	1.10032567776198	3.59886727564218
	66.0988672756422	1.04270370411124	0
	6.40113272435782	2.859e-12	-1.04339457690114
	6.40113272435782	-19.9106380864259	2.80583047829305
	72.5
 110	8.62168318275845e-08	1.29419915983748	3.64386240284403
	66.143862402844	1.25527849119277	0
	6.35613759715597	2.859e-12	-1.25458554131799
	6.35613759715597	-12.9116858633516	3.30020785758557
	72.5
 111	8.83699705572229e-08	1.40902800628578	3.66917839772999
	66.16917839773	1.38354424304569	0
	6.33082160227001	2.859e-12	-1.38417658241079
	6.33082160227001	-6.42693283002491	3.59302141602874
	72.5
 112	9.03237130914307e-08	1.47195203083272	3.68329918984572
	66.1832991898457	1.45779874394493	0
	6.31670081015428	2.859e-12	-1.45716001879196
	6.31670081015428	-0.278505036874796	3.75347767862342
	72.5
 113	9.21899426310988e-08	1.49437250159801	3.68941343839779
	66.1894134383978	1.49055279333879	0
	6.31058656160221	2.859e-12	-1.49119035176258
	6.31058656160221	5.6678612770494	3.81064987907492
	72.5
 114	9.40402791778473e-08	1.48030033460782	3.6886429239177
	66.1886429239177	1.48640510587381	0
	6.3113570760823	2.859e-12	-1.48576716429536
	6.3113570760823	11.4874515740453	3.77476585324994
	72.5
 115	9.59821713042386e-08	1.42771791668071	3.68070831933107
	66.1807083193311	1.44402920830352	0
	6.31929168066893	2.859e-12	-1.44466697284203
	6.31929168066893	17.3608746483092	3.64068068753583
	72.5
 116	9.82316936404335e-08	1.32124230715647	3.66252944682868
	66.1625294468287	1.34925268353844	0
	6.33747055317132	2.859e-12	-1.34861482845491
	6.33747055317132	23.6679229342703	3.36916788324898
	72.5
 117	9.96783468202167e-08	1.22875731973286	3.64571697055688
	66.1457169705569	1.26446306378298	0
	6.35428302944312	2.859e-12	-1.26510091595793
	6.35428302944312	27.3565171404737	3.13333116531881
	72.5
 118	1.01125e-07	1.11943344033313	3.62481803696884
	66.1248180369688	1.16290009612783	0
	6.37518196303116	2.859e-12	-1.16226221506054
	6.37518196303116	30.6915897903311	2.85455527284947
	72.5
 119	1.01240565462909e-07	1.10983103008706	3.39827819502781
	66.4761055095733	0.334789889199281	0
	6.02389449042667	2.859e-12	-2.42931771450315
	6.02389449042667	30.9399932968481	2.830069126722
	72.5
 120	1.01426363263999e-07	1.09409964049634	3.02118851076951
	67.0280048307651	2.859e-12	0
	5.47199516923489	2.859e-12	-2.09505217483249
	5.47199516923489	31.3355010963165	2.78995408326568
	72.5
 121	1.01662185256407e-07	1.07331501336535	2.48480413125546
	67.6707304132898	2.859e-12	0
	4.82926958671015	2.859e-12	-2.09452782530802
	4.82926958671015	31.826249278034	2.73695328408165
	72.5
 122	1.01994637457527e-07	1.04252755683353	1.7019181268419
	68.5501054144763	2.859e-12	0
	3.94989458552372	2.859e-12	-2.09505217483384
	3.94989458552372	32.4960567103523	2.65844526992549
	72.5
 123	1.02339990215232e-07	1.00876576082783	0.850963471325525
	69.425914547485	2.859e-12	0
	3.07408545251504	2.859e-12	-2.09452782530989
	3.07408545251504	33.1636022200232	2.57235269011097
	72.5
 124	1.02732495107616e-07	0.968297168360997	-0.170664050258615
	70.3668114878212	2.859e-12	0
	2.13318851217884	2.859e-12	-2.09505217483566
	2.13318851217884	33.8859465350389	2.46915777932054
	72.5
 125	1.03125e-07	0.925725311899814	-1.262765565574
	71.237234434426	2.859e-12	0
	1.262765565574	2.859e-12	-2.09452782531147
	1.262765565574	34.5682532901988	2.36059954534453
	72.5
 126	1.03188555324169e-07	0.918640954775169	-1.24332796704255
	71.2566720329574	2.859e-12	0
	1.24332796704255	2.859e-12	-7.41156720329574e-11
	1.24332796704255	34.6744105703293	2.34253443467668
	72.5
 127	1.03311504129811e-07	0.904886877667582	-1.20617102016329
	71.2938289798367	2.859e-12	0
	1.20617102016329	2.859e-12	-7.41528289798367e-11
	1.20617102016329	34.8778489173804	2.30746153805233
	72.5
 128	1.03419744940015e-07	0.892697275277611	-1.17405835851988
	71.3259416414801	2.859e-12	0
	1.17405835851988	2.859e-12	-7.4185102505453e-11
	1.17405835851988	35.0537568835461	2.27637805195791
	72.5
 129	1.03636226560423e-07	0.868096912647087	-1.11152972277189
	71.3884702772281	2.859e-12	0
	1.11152972277189	2.859e-12	-7.42474702772281e-11
	1.11152972277189	35.3965361492707	2.21364712725007
	72.5
 130	1.04069189801238e-07	0.818050548957207	-0.993226250635628
	71.5067737493644	2.859e-12	0
	0.993226250635628	2.859e-12	-7.43657737493644e-11
	0.993226250635628	36.0455560808712	2.08602889984088
	72.5
 131	1.0493511628287e-07	0.714891239208957	-0.783271559704093
	71.7167284402959	2.859e-12	0
	0.783271559704093	2.859e-12	-7.45757284402959e-11
	0.783271559704093	37.1946433401324	1.82297265998284
	72.5
 132	1.06666969246132e-07	0.498877760733629	-0.465750173164469
	72.0342498268355	2.859e-12	0
	0.465750173164469	2.859e-12	-7.48932498268355e-11
	0.465750173164469	38.8800530543462	1.27213828987075
	72.5
 133	1.08645984623066e-07	0.241774220879197	-0.256542968694569
	72.2434570313054	2.859e-12	0
	0.256542968694569	2.859e-12	-7.51024570313054e-11
	0.256542968694569	39.7837599432159	0.616524263241953
	72.5
 134	1.10625e-07	-0.0185445570720613	-0.195643965321242
	72.3043560346788	2.859e-12	6.61744490042422e-14
	0.195643965321242	2.859e-12	-7.51633560346788e-11
	0.195643965321242	39.5899203969531	-0.0472886205337564
	72.5
 135	1.10748663149686e-07	-0.0347324128653573	-0.268307622024122
	72.2316923779759	2.859e-12	0.618315748431116
	0.268307622024122	2.859e-12	-7.50906923779759e-11
	0.268307622024122	39.5395028124012	-0.088567652806661
	72.5
 136	1.10943041875156e-07	-0.0601115507096944	-0.386174807517983
	72.113825192482	2.859e-12	1.59020937578197
	0.386174807517983	2.859e-12	-7.4972825192482e-11
	0.386174807517983	39.4551736186021	-0.153284454309721
	72.5
 137	1.11228233495544e-07	-0.0970974048574214	-0.567951348584499
	71.9320486514155	2.859e-12	3.01616747772043
	0.567951348584499	2.859e-12	-7.47910486514155e-11
	0.567951348584499	39.3131632258683	-0.247598382386424
	72.5
 138	1.11370829305738e-07	-0.115480737148824	-0.625627282644436
	71.8743727173556	2.859e-12	3.7291465286896
	0.625627282644436	1.71226881606674	-7.47333727173556e-11
	0.625627282644436	39.2340381196009	-0.2944758797295
	72.5
 139	1.11656020926126e-07	-0.152158172889928	-0.50127175158082
	71.9987282484192	2.859e-12	5.15510463062793
	0.50127175158082	8.6287637660333	-7.48577282484192e-11
	0.50127175158082	39.0593102601284	-0.388003340869317
	72.5
 140	1.11885305034589e-07	-0.181659964381049	-0.255865960802202
	72.2441340391978	2.859e-12	6.30152517294431
	0.255865960802202	7.56519170943725	-7.51031340391978e-11
	0.255865960802202	38.9026560173653	-0.463232909171675
	72.5
 141	1.11954881711441e-07	-0.190623076992076	-0.201198126646265
	72.2988018733537	2.859e-12	6.64940855720634
	0.201198126646265	6.68365363921792	-7.51578018733537e-11
	0.201198126646265	38.8522445303484	-0.486088846329794
	72.5
 142	1.12094035065146e-07	-0.208542032539261	-0.131747026174864