Title: // Class-D RF Power Amplifier - 300W, 13.56 MHz
Date: 9:17:39 PM, Sat Jun 27, 2026
Plotname: Transient Analysis `tran': time = (0 s -> 1 us)
Flags: real
No. Variables:       13
No. Points:     1601
Variables:	0	time	s
		1	L1:i	A plot=0 grid=0
		2	M1:vgs	V plot=0 grid=0
		3	M1:vds	V plot=0 grid=0
		4	M1:id	A plot=0 grid=0
		5	M2:vgs	V plot=0 grid=0
		6	M2:vds	V plot=0 grid=0
		7	M2:id	A plot=0 grid=0
		8	Vdd:i	A plot=0 grid=0
		9	mid	V plot=0 grid=0
		10	lc_out	V plot=0 grid=0
		11	rload	V plot=0 grid=0
		12	vdd	V plot=0 grid=0
Values:
 0	0	0	-36.24
	36.26	1e-14	0
	36.24	1e-14	-3.627e-11
	36.24	36.24	0
	72.5
 1	3.27411390684564e-11	9.05997830277072e-05	-35.7607389673567
	35.429615469905	1e-14	0
	37.070384530095	1e-14	19.2983781171318
	37.070384530095	36.2402373408086	0.000231029446720652
	72.5
 2	6.25012480115345e-11	0.000247783254175308	-35.3251114029405
	34.6748386765982	1e-14	0
	37.8251613234018	1e-14	19.2983781171323
	37.8251613234018	36.2406538481423	0.000631847298147035
	72.5
 3	1.22021465897691e-10	0.000711773866891554	-34.453848869812
	33.1652924942803	1e-14	0
	39.3347075057197	1e-14	19.2983781171343
	39.3347075057197	36.2418977827674	0.00181502336057346
	72.5
 4	2.41061901670003e-10	0.00253696940277679	-32.7112507425452
	30.1462731906547	1e-14	0
	42.3537268093453	1e-14	19.2983781171367
	42.3537268093453	36.2469634482078	0.00646927197708081
	72.5
 5	4.79142773214628e-10	0.00977038277782023	-29.2254762640732
	24.1088128073417	1e-14	0
	48.3911871926583	1e-14	19.2983781171434
	48.3911871926583	36.2685258279882	0.0249144760834416
	72.5
 6	9.55304516303877e-10	0.0385126302651093	-22.2493345515546
	12.0384847962904	1e-14	0
	60.4615152037096	1e-14	19.2983781171548
	60.4615152037096	36.366276562966	0.0982072071760286
	72.5
 7	1.47765225815194e-09	0.0918012350291972	-13.3939096739225
	1.19113411550683	1e-14	0
	73.6911341155068	1e-14	19.2983781171687
	73.6911341155068	36.5745764979527	0.234093149324453
	72.5
 8	1.60823919361395e-09	0.108661144042878	-8.17043225544184
	4.49608284405129	1e-14	0
	76.9960828440513	1e-14	19.2983781171713
	76.9960828440513	36.6454179550423	0.277085917309339
	72.5
 9	1.80411959680698e-09	0.136584430611254	-0.335216127720926
	9.45115405165123	1e-14	0
	81.9511540516512	1e-14	19.2983781171769
	81.9511540516512	36.7677274443497	0.348290298058699
	72.5
 10	1.91676332760704e-09	0.154054999672123	4.1705331042815
	12.2240630267531	2.49008167855871	0
	84.7240630267531	1e-14	21.7884597957379
	84.7240630267531	36.847105810077	0.392840249163913
	72.5
 11	2e-09	0.167339288694848	7.5
	12.2936504352617	88.6670663836826	0
	84.7936504352617	1e-14	107.965444500862
	84.7936504352617	36.9094400993081	0.426715186171862
	72.5
 12	2.03179777656482e-09	0.172253494240837	7.5
	10.7990190383336	87.4869054326682	0
	83.2990190383336	1e-14	87.486905432679
	83.2990190383336	36.9336251066895	0.439246410314136
	72.5
 13	2.0819002273945e-09	0.179798827244746	7.5
	8.46860612036929	85.6468113926436	0
	80.9686061203693	1e-14	85.646811392652
	80.9686061203693	36.9716302634311	0.458487009474101
	72.5
 14	2.12427663716901e-09	0.18587457020145	7.5
	6.53564618948494	84.1205462312173	0
	79.0356461894849	1e-14	84.1205462312238
	79.0356461894849	37.0036084353471	0.473980154013697
	72.5
 15	2.20902945671803e-09	0.19722672542608	7.5
	2.90545790074262	75.1701313186437	0
	75.4054579007426	1e-14	75.255209052047
	75.4054579007426	37.0670978300819	0.502928149836505
	72.5
 16	2.24357780024449e-09	0.20157105030515	7.5
	1.7062151167214	53.8989531511332	0
	74.2062151167214	1e-14	53.8161970863454
	74.2062151167214	37.0928330952826	0.514006178278133
	72.5
 17	2.3126744872974e-09	0.209963691665289	7.5
	0.412588213538442	15.512642738324	0
	72.9125882135384	1e-14	15.6022230295869
	72.9125882135384	37.1444850618971	0.535407413746487
	72.5
 18	2.33082332068134e-09	0.212123047800524	7.5
	0.282520948500704	10.7904241148089	0
	72.7825209485007	1e-14	10.7063231558778
	72.7825209485007	37.1581407624974	0.540913771891337
	72.5
 19	2.36712098744921e-09	0.216421912688487	7.5
	0.12574167114154	4.89239810777071	0
	72.6257416711415	1e-14	4.97529346845907
	72.6257416711415	37.1856509341009	0.551875877355643
	72.5
 20	2.43165750175566e-09	0.224028648960625	7.5
	0.0199031084244297	0.78397580516862	0
	72.5199031084244	1e-14	0.701113649501338
	72.5199031084244	37.23528762646	0.571273054849593
	72.5
 21	2.45491657550657e-09	0.226763004573269	7.5
	0.00979453505948413	0.386252643148373	0
	72.5097945350595	1e-14	0.469111060706135
	72.5097945350595	37.253414484672	0.578245661661836
	72.5
 22	2.50143472300838e-09	0.232225881105063	7.50050056064632
	0.000500560646315762	0.0197634697625538	0
	72.4994994393537	1e-14	-0.10263635219282
	72.4994994393537	37.2900589822597	0.592175996817912
	72.5
 23	2.59447101801202e-09	0.243131873750769	7.50597539965806
	0.00597539965805538	0.2360990916757	0
	72.4940246003419	1e-14	-0.153234356830477
	72.4940246003419	37.3649176936265	0.619986278064461
	72.5
 24	2.78054360801929e-09	0.264870282518599	7.50657469041296
	0.0065746904129611	0.259799180416693	0
	72.493425309587	1e-14	-0.342754975353561
	72.493425309587	37.5209094412465	0.675419220422427
	72.5
 25	3.15268878803383e-09	0.308039949107575	7.50764874763952
	0.0076487476395215	0.30228438999527	0
	72.4923512523605	1e-14	-0.2193904810807
	72.4923512523605	37.8578067519853	0.785501870224317
	72.5
 26	3.89697914806291e-09	0.392998448029181	7.50981253467108
	0.00981253467108445	0.387912099692995	0
	72.4901874653289	1e-14	-0.470804601387091
	72.4901874653289	38.6295319040217	1.00214604247441
	72.5
 27	5.38555986812107e-09	0.556217154400081	7.51392991186988
	0.0139299118698801	0.550987261437415	0
	72.4860700881301	1e-14	-0.468094362691077
	72.4860700881301	40.5489141211766	1.41835374372021
	72.5
 28	7.02612258354927e-09	0.723546454454283	7.51817059455261
	0.0181705945526147	0.71913511177234	0
	72.4818294054474	1e-14	-0.80202800646493
	72.4818294054474	43.2091490078556	1.84504345885842
	72.5
 29	9.38546350047943e-09	0.935181154738367	7.52351073692036
	0.0235107369203575	0.931150607221534	0
	72.4764892630796	1e-14	-0.848257471945308
	72.4764892630796	47.9121195344417	2.38471194458284
	72.5
 30	1.1681700106988e-08	1.10154340293957	7.52772094198947
	0.0277209419894717	1.09851952914667	0
	72.4722790580105	1e-14	-1.09851944192364
	72.4722790580105	53.278823667576	2.80893567749591
	72.5
 31	1.51624553632037e-08	1.27061434142834	7.53200572042977
	0.0320057204297655	1.26904712718953	0
	72.4679942795702	1e-14	-1.26904690576157
	72.4679942795702	62.4938913025111	3.24006657064227
	72.5
 32	1.90902155625197e-08	1.32894036881748	7.53351289225417
	0.0335128922541656	1.32907681638508	0
	72.4664871077458	1e-14	-1.32907658017201
	72.4664871077458	73.5047796158088	3.38879794048458
	72.5
 33	2.28332641958522e-08	1.25290971143948	7.53164380208787
	0.0316438020878707	1.25463575988439	0
	72.4683561979121	1e-14	-1.2546359935766
	72.4683561979121	83.5917423058515	3.19491976417068
	72.5
 34	2.51041320979261e-08	1.14769554544552	7.5290219237545
	0.0290219237544989	1.15027589777349	0
	72.4709780762455	1e-14	-1.15027562620422
	72.4709780762455	89.1228689734287	2.92662364088607
	72.5
 35	2.7375e-08	1.00330651356267	7.52541072115739
	0.0254107211573853	1.00665755819482	0
	72.4745892788426	1e-14	-1.00665773347956
	72.4745892788426	93.9511041049961	2.55843160958482
	72.5
 36	2.74057527699429e-08	1.00104418697784	6.81853470905432
	0.548645506772161	16.5752501468189	0
	71.9513544932278	1e-14	-35.8676360912746
	71.9513544932278	94.0108349202577	2.5526626767935
	72.5
 37	2.74672583098288e-08	0.996401538963042	5.39056810503324
	1.58090049818675	17.4370479247716	0
	70.9190995018132	1e-14	-36.7249983515938
	70.9190995018132	94.1296918888484	2.54082392435576
	72.5
 38	2.75902693896006e-08	0.986297235462679	3.08026332837755
	4.19103891240241	1e-14	0
	68.3089610875976	1e-14	-19.308805807518
	68.3089610875976	94.3633875288632	2.51505795042983
	72.5
 39	2.7700245131145e-08	0.976183247548669	1.52832091195287
	7.03812615775152	1e-14	0
	65.4618738422485	1e-14	-19.2879504268277
	65.4618738422485	94.5671981856245	2.48926728124911
	72.5
 40	2.78452815066981e-08	0.961137091533953	-0.519364297551654
	10.7918959703716	1e-14	0
	61.7081040296284	1e-14	-19.3088058075246
	61.7081040296284	94.82774742424	2.45089958341158
	72.5
 41	2.79860740798641e-08	0.944677367710914	-2.50832297337956
	14.4346402211863	1e-14	0
	58.0653597788137	1e-14	-19.287950426835
	58.0653597788137	95.0712267473149	2.40892728766283
	72.5
 42	2.82676592261963e-08	0.906302843236465	-6.49038005191264
	21.7159889959386	1e-14	0
	50.7840110040614	1e-14	-19.3088058075355
	50.7840110040614	95.5278488732641	2.31107225025299
	72.5
 43	2.88308295188606e-08	0.807914185174286	-14.4751441582386
	36.2580365961833	1e-14	0
	36.2419634038167	1e-14	-19.2879504268568
	36.2419634038167	96.3039749288014	2.06018117219443
	72.5
 44	2.9375e-08	0.68573761753364	-22.2227040649445
	50.2772959350555	1e-14	0
	22.2227040649445	1e-14	-19.308805807564
	22.2227040649445	96.8571068303969	1.74863092471078
	72.5
 45	2.9397267462885e-08	0.680195437534424	-22.2145824106401
	50.2854175893599	1e-14	0
	22.2145824106401	1e-14	-5.02957675507787e-11
	22.2145824106401	96.8752002855687	1.73449836571278
	72.5
 46	2.94282587078898e-08	0.672480119325335	-22.2033430212325
	50.2966569787675	1e-14	0
	22.2033430212325	1e-14	-5.03064256918151e-11
	22.2033430212325	96.9001231385979	1.7148243042796
	72.5
 47	2.94870443758197e-08	0.657835269012968	-22.1823760294743
	50.3176239705257	1e-14	0
	22.1823760294743	1e-14	-5.03348474012455e-11
	22.1823760294743	96.9459739603663	1.67747993598307
	72.5
 48	2.96046157116797e-08	0.628507743477329	-22.1418281359785
	50.3581718640215	1e-14	0
	22.1418281359785	1e-14	-5.03681718640215e-11
	22.1418281359785	97.0320792663702	1.60269474586719
	72.5
 49	2.98397583833996e-08	0.569715083523487	-22.0662877690601
	50.4337122309399	1e-14	0
	22.0662877690601	1e-14	-5.04437122309399e-11
	22.0662877690601	97.1818955546121	1.45277346298489
	72.5
 50	3.03100437268395e-08	0.451688933836142	-21.93750164931
	50.56249835069	1e-14	0
	21.93750164931	1e-14	-5.057249835069e-11
	21.93750164931	97.3919409357762	1.15180678128216
	72.5
 51	3.12506144137191e-08	0.21474938193556	-21.7694427748986
	50.7305572251014	1e-14	0
	21.7694427748986	1e-14	-5.07405572251014e-11
	21.7694427748986	97.4545879980343	0.547610923935678
	72.5
 52	3.31317557874785e-08	-0.255747249092023	-21.7901200236547
	50.7098799763453	1e-14	0
	21.7901200236547	1e-14	-5.07198799763453e-11
	21.7901200236547	96.1727760738673	-0.652155485184657
	72.5
 53	3.50033778937392e-08	-0.7086690030105	-22.2740613820453
	50.2259386179548	1e-14	0
	22.2740613820453	1e-14	-5.02359386179548e-11
	22.2740613820453	93.0975886044898	-1.80710595767677
	72.5
 54	3.6875e-08	-1.13276826733781	-23.198089416656
	49.301910583344	1e-14	0
	23.198089416656	1e-14	-4.9311910583344e-11
	23.198089416656	88.3496730310122	-2.88855908171143
	72.5
 55	3.7002557651992e-08	-1.16019775728374	-23.4424427101543
	49.0575572898457	1e-14	0.637788259960024
	23.4424427101543	1e-14	-4.90675572898457e-11
	23.4424427101543	87.964851019383	-2.95850428107353
	72.5
 56	3.72009962752373e-08	-1.20254192612479	-23.8248305720344
	48.6751694279656	1e-14	1.62998137618636
	23.8248305720344	1e-14	-4.86851694279656e-11
	23.8248305720344	87.3580874208995	-3.06648191161821
	72.5
 57	3.74773232204663e-08	-1.26040037914819	-24.364731472129
	48.135268527871	1e-14	3.01161610233163
	24.364731472129	1e-14	-4.8145268527871e-11
	24.364731472129	86.4865299364435	-3.2140209668279
	72.5
 58	3.7592836236265e-08	-1.28419953687137	-24.5914408257783
	47.9085591742217	1e-14	3.58918118132499
	24.5914408257783	0.0489014579012569	-4.79185591742217e-11
	24.5914408257783	86.1131459030787	-3.27470881902198
	72.5
 59	3.78238622678623e-08	-1.33132326311118	-24.460209799521
	48.039790200479	1e-14	4.74431133931172
	24.460209799521	9.50989678551744	-4.8049790200479e-11
	24.460209799521	85.3501571532604	-3.3948743209335
	72.5
 60	3.79947917851026e-08	-1.36621894128149	-23.1421597150997
	49.3578402849003	1e-14	5.59895892551276
	23.1421597150997	26.7732937555737	-4.93678402849003e-11
	23.1421597150997	84.7706523369773	-3.4838583002678
	72.5
 61	3.81348401199646e-08	-1.39544606053455	-20.6696934772979
	51.8303065227021	1e-14	6.29920059982288
	20.6696934772979	46.6609322725268	-5.18403065227021e-11
	20.6696934772979	84.2846693691042	-3.55838745436311
	72.5
 62	3.82585631027909e-08	-1.42231386761577	-17.1354786667294
	55.3645213332706	1e-14	6.91781551395443
	17.1354786667294	67.5262834068732	-5.53745213332705e-11
	17.1354786667294	83.8452823512607	-3.62690036242022
	72.5
 63	3.83825150233526e-08	-1.45080751985475	-12.1488455627066
	60.3511544372934	1e-14	7.53757511676315
	12.1488455627066	90.2242321781979	-6.03611544372934e-11
	12.1488455627066	83.3937629912598	-3.69955917562962
	72.5
 64	3.85079473831151e-08	-1.48186780770742	-5.56334037773411
	66.9366596222659	1e-14	8.16473691557552
	5.56334037773411	113.358630808644	-6.69466596222659e-11
	5.56334037773411	82.9232269309022	-3.77876290965392
	72.5
 65	3.85484167554705e-08	-1.49244696031756	-3.25154139076666
	69.2484586092333	1e-14	8.36708377735252
	3.25154139076666	107.404867880422	-6.92584586092333e-11
	3.25154139076666	82.7681983344598	-3.80573974880977
	72.5
 66	3.8565623175005e-08	-1.49702999623451	-2.37485341007703
	70.125146589923	1e-14	8.45311587502487
	2.37485341007703	90.3632250624097	-7.0135146589923e-11
	2.37485341007703	82.7017901091449	-3.81742649039799
	72.5
 67	3.85975664269451e-08	-1.5056371700183	-1.20350222322592
	71.2964977767741	1e-14	8.61283213472527
	1.20350222322592	54.2300767269981	-7.13064977767741e-11
	1.20350222322592	82.5778046311198	-3.83937478354667
	72.5
 68	3.8620284590311e-08	-1.51181355894086	-0.711207396239901
	71.7887926037601	1e-14	8.72642295155515
	0.711207396239901	34.4344565920043	-7.17987926037601e-11
	0.711207396239901	82.4891283089319	-3.85512457529919
	72.5
 69	3.86465016113892e-08	-1.51896854668056	-0.385665883958832
	72.1143341160412	1e-14	8.85750805694608
	0.385665883958832	19.7352706615395	-7.21243341160412e-11
	0.385665883958832	82.3863532196143	-3.87336979403542
	72.5
 70	3.86748395428057e-08	-1.52671588801854	-0.210284989121101
	72.2897150108789	1e-14	8.9991977140286
	0.210284989121101	11.2189731924477	-7.22997150108789e-11
	0.210284989121101	82.2747800559824	-3.89312551444729
	72.5
 71	3.87039895988213e-08	-1.53468671111096	-0.128745226851898
	72.3712547731481	1e-14	9.14494799410667
	0.128745226851898	7.10045275576664	-7.23812547731481e-11
	0.128745226851898	82.1595182259787	-3.91345111333294
	72.5
 72	3.87371409986323e-08	-1.5437446476642	-0.0902102847146557
	72.4097897152853	1e-14	9.31070499316158
	0.0902102847146557	5.13817989747257	-7.24197897152853e-11
	0.0902102847146557	82.0278520741877	-3.9365488515437
	72.5
 73	3.87776436323926e-08	-1.55479507706023	-0.0734007058704157
	72.4265992941296	1e-14	9.51321816196292
	0.0734007058704157	4.33295586439048	-7.24365992941296e-11
	0.0734007058704157	81.8661638838425	-3.96472744650359
	72.5
 74	3.88311732983759e-08	-1.56936818651507	-0.0664485945155278
	72.4335514054845	1e-14	9.78086649187943
	0.0664485945155278	4.10022404514509	-7.24435514054845e-11
	0.0664485945155278	81.6510924377364	-4.00188887561342
	72.5
 75	3.8875e-08	-1.58127173896167	-0.0639641413626017
	72.4360358586374	1e-14	9.99999999999999
	0.0639641413626017	4.08604030385372	-7.24460358586374e-11
	0.0639641413626017	81.4738424684243	-4.03224293435226
	72.5
 76	3.8905034042598e-08	-1.58941011597858	-0.0441043273194557
	72.4558956726805	1e-14	10
	0.0441043273194557	2.8211573021214	-7.24658956726805e-11
	0.0441043273194557	81.351522774842	-4.05299579574537
	72.5
 77	3.89406522451619e-08	-1.59905386913316	-0.0295462047269784
	72.470453795273	1e-14	10
	0.0295462047269784	1.89178740305333	-7.2480453795273e-11
	0.0295462047269784	81.2061148680323	-4.07758736628957
	72.5
 78	3.89745161179759e-08	-1.6082075838645	-0.0262350987912301
	72.4737649012088	1e-14	10
	0.0262350987912301	1.68015677431303	-7.24837649012088e-11
	0.0262350987912301	81.0672300295892	-4.10092933885448
	72.5
 79	3.90422438636038e-08	-1.62646823402143	-0.0251794077734649
	72.4748205922265	1e-14	10
	0.0251794077734649	1.61266205953349	-7.24848205922265e-11
	0.0251794077734649	80.787604413197	-4.14749399675465
	72.5
 80	3.91387452266117e-08	-1.65237705871773	-0.0257011267941716
	72.4742988732058	1e-14	10
	0.0257011267941716	1.64601892221309	-7.24842988732058e-11
	0.0257011267941716	80.3849272933689	-4.21356149973021
	72.5
 81	3.93298826403058e-08	-1.70330623719241	-0.0264611056443926
	72.4735388943556	1e-14	10
	0.0264611056443926	1.69460508703283	-7.24835388943556e-11
	0.0264611056443926	79.5727210517088	-4.34343090484064
	72.5
 82	3.9712157467694e-08	-1.8035731094383	-0.0280581046161507
	72.4719418953838	1e-14	10
	0.0280581046161507	1.79668656198557	-7.24819418953838e-11
	0.0280581046161507	77.890879147796	-4.59911142906766
	72.5
 83	4.04767071224705e-08	-1.99738502240542	-0.0310762151061493
	72.4689237848938	1e-14	10
	0.0310762151061493	1.98954678069301	-7.24789237848938e-11
	0.0310762151061493	74.3051468255587	-5.09333180713381
	72.5
 84	4.20058064320234e-08	-2.35546209960691	-0.0367132611730357
	72.463286738827	1e-14	10
	0.0367132611730357	2.3495498437563	-7.2473286738827e-11
	0.0367132611730357	66.311267801186	-6.00642835399763
	72.5
 85	4.48379171514382e-08	-2.89954771803083	-0.0452499709348895
	72.4547500290651	1e-14	10
	0.0452499709348895	2.89421621702826	-7.24647500290651e-11
	0.0452499709348895	49.0911158197773	-7.39384668097861
	72.5
 86	4.73303333921274e-08	-3.23561136624246	-0.0505646219027951
	72.4494353780972	1e-14	10
	0.0505646219027951	3.23298952674069	-7.24594353780972e-11
	0.0505646219027951	31.9667384733755	-8.25080898391827
	72.5
 87	4.95664116877663e-08	-3.41262244065591	-0.0533523916343069
	72.4466476083657	1e-14	10
	0.0533523916343069	3.41059398104105	-7.24566476083657e-11
	0.0533523916343069	15.7004971273036	-8.70218722367257
	72.5
 88	5.12202424807269e-08	-3.46496833838638	-0.0542076530982967
	72.4457923469017	1e-14	10
	0.0542076530982967	3.46506795114316	-7.24557923469017e-11
	0.0542076530982967	3.46661996919543	-8.83566926288525
	72.5
 89	5.2637559224043e-08	-3.45632734140225	-0.0540743590362656
	72.4459256409637	1e-14	10
	0.0540743590362656	3.4565784973027	-7.24559256409637e-11
	0.0540743590362656	-6.94716277828841	-8.81363472057574
	72.5
 90	5.40243364864901e-08	-3.40075293238537	-0.0532296192291645
	72.4467703807708	1e-14	10
	0.0532296192291645	3.40277375021835	-7.24567703807708e-11
	0.0532296192291645	-16.9216640038737	-8.67191997758269
	72.5
 91	5.56919490310522e-08	-3.27419897938702	-0.0512491773956849
	72.4487508226043	1e-14	10
	0.0512491773956849	3.27660768031305	-7.24587508226043e-11
	0.0512491773956849	-28.4406892348134	-8.34920739743693
	72.5
 92	5.76936462119913e-08	-3.04101195113568	-0.0476206993281969
	72.4523793006718	1e-14	10
	0.0476206993281969	3.04536424636647	-7.24623793006718e-11
	0.0476206993281969	-41.2940835007115	-7.75458047539596
	72.5
 93	6.00325106084421e-08	-2.66686142821554	-0.0417635692242139
	72.4582364307758	1e-14	10
	0.0417635692242139	2.67184957164627	-7.24682364307758e-11
	0.0417635692242139	-54.542065440046	-6.80049664194965
	72.5
 94	6.2141255304221e-08	-2.24803633703436	-0.0352262591800555
	72.46477374082	1e-14	10
	0.0352262591800555	2.25461080419585	-7.24747737408199e-11
	0.0352262591800555	-64.4998748540942	-5.73249265943761
	72.5
 95	6.425e-08	-1.76695063200441	-0.0276983240989972
	72.472301675901	1e-14	10
	0.0276983240989972	1.77369101124239	-7.2482301675901e-11
	0.0276983240989972	-72.280108938802	-4.50572411161127
	72.5
 96	6.4383782578133e-08	-1.7345286814758	0.00407799823845776
	72.5040779982385	1e-14	9.33516510757359
	0.00407799823845776	0.234791982232896	-7.25140779982384e-11
	-0.00407799823845776	-72.6911557710252	-4.42304813776328
	72.5
 97	6.45886257860132e-08	-1.68467957957021	0.0189326665268799
	72.5189326665269	1e-14	8.3258037364607
	0.0189326665268799	0.900177300371142	-7.25289326665269e-11
	-0.0189326665268799	-73.3091486341482	-4.29593292790404
	72.5
 98	6.48862267576285e-08	-1.61153406609618	0.019064471714185
	72.5190644717142	1e-14	6.83793068357174
	0.019064471714185	0.626411939416278	-7.25290644717142e-11
	-0.019064471714185	-74.1661981956424	-4.10941186854526
	72.5
 99	6.52404152255079e-08	-1.5234280550214	0.0484924436580238
	72.548492443658	1e-14	5.09641631611838
	0.0484924436580238	0.752837601522723	-7.2558492443658e-11
	-0.0484924436580238	-75.1227698147833	-3.88474154030457
	72.5
 100	6.56642138952433e-08	-1.41669946439375	0.177072575566802
	72.6770725755668	1e-14	3.10600309935024
	0.177072575566802	0	-7.26870725755668e-11
	-0.177072575566802	-76.1761673678109	-3.61258363420398
	72.5
 101	6.59571069476217e-08	-1.34223953378603	0.339282350238993
	72.839282350239	1e-14	1.80374761213071
	0.339282350238993	0	-7.2849282350239e-11
	-0.339282350238993	-76.8459478048704	-3.42271081115444
	72.5
 102	6.625e-08	-1.26731381611745	0.513226565571259
	73.0132265655713	1e-14	0.513226565571259
	0.513226565571259	0	-7.30232265655713e-11
	-0.513226565571259	-77.4679936567275	-3.23165023109941
	72.5
 103	6.63026052042857e-08	-1.25379278395805	0.477861099988536
	72.9778610999885	1e-14	0.477861099988536
	0.477861099988536	0	-7.29878610999885e-11
	-0.477861099988536	-77.5738469939384	-3.19717159909304
	72.5
 104	6.6404542428423e-08	-1.22754619851291	0.410045542972609
	72.9100455429726	1e-14	0.410045542972609
	0.410045542972609	0	-7.29200455429726e-11
	-0.410045542972609	-77.7760041670283	-3.13024280620793
	72.5
 105	6.64950907951424e-08	-1.20415606671063	0.351011693536157
	72.8510116935362	1e-14	0.351011693536157
	0.351011693536157	0	-7.28610116935361e-11
	-0.351011693536157	-77.9506004675963	-3.07059797011211
	72.5
 106	6.66761875285813e-08	-1.15716974950263	0.236361026031191
	72.7363610260312	1e-14	0.236361026031191
	0.236361026031191	0	-7.27463610260312e-11
	-0.236361026031191	-78.2857091798874	-2.95078286123171
	72.5
 107	6.70383809954591e-08	-1.06242593216653	0.0208226847645954
	72.5208226847646	1e-14	0.0208226847645954
	0.0208226847645954	0	-7.25308226847646e-11
	-0.0208226847645954	-78.8993497382449	-2.70918612702465
	72.5
 108	6.77627679292147e-08	-0.870280896054372	-0.354536149565948
	72.1454638504341	1e-14	0
	0.354536149565948	1e-14	-7.21554638504341e-11
	0.354536149565948	-79.8987709314178	-2.21921628493865
	72.5
 109	6.92115417967258e-08	-0.478809731246489	-0.878560877881019
	71.621439122119	1e-14	0
	0.878560877881019	1e-14	-7.1631439122119e-11
	0.878560877881019	-80.979803765134	-1.22096481467855
	72.5
 110	7.14807708983629e-08	0.138328035105497	-1.0857095563975
	71.4142904436025	1e-14	0
	1.0857095563975	1e-14	-7.14242904436025e-11
	1.0857095563975	-80.2280503050406	0.352736489519019
	72.5
 111	7.375e-08	0.737568375869296	-0.55281517175745
	71.9471848282426	1e-14	0
	0.55281517175745	1e-14	-7.19571848282426e-11
	0.55281517175745	-76.58550911077	1.8807993584667
	72.5
 112	7.378125e-08	0.745676780451624	-0.0828876522307469
	71.1671123477692	1e-14	0
	1.33288765223084	1e-14	19.2983781170963
	1.33288765223084	-76.5152531059167	1.90147579015164
	72.5
 113	7.38200970948931e-08	0.755813474991935	0.501388129915235
	70.1975043341919	1e-14	0
	2.30249566580806	1e-14	19.2983781170968
	2.30249566580806	-76.4273529024621	1.92732436122943
	72.5
 114	7.38977912846792e-08	0.776428817126257	1.67058027288509
	68.2589288857154	1e-14	0
	4.2410711142846	1e-14	19.2983781170992
	4.2410711142846	-76.248138755081	1.97989348367195
	72.5
 115	7.40531796642516e-08	0.819039256858763	3.94480661608861
	64.3176200460261	1.60440412442414	0
	8.18237995397388	1e-14	17.6951483696894
	8.18237995397388	-75.8757404330441	2.08855010498985
	72.5
 116	7.40912974449408e-08	0.829778515237479	4.43173513502158
	63.27983733739	6.99527289361863	0
	9.22016266261004	1e-14	12.302155134944
	9.22016266261004	-75.781494394143	2.11593521385557
	72.5
 117	7.41103563352854e-08	0.835194484888186	4.63103586329393
	62.7167824518775	10.2724079146111	0
	9.78321754812252	1e-14	9.03616002972706
	9.78321754812252	-75.733925652559	2.12974593646487
	72.5
 118	7.41484741159746e-08	0.846130691100771	4.93377059208084
	61.4948059530947	16.3834384055427	0
	11.0051940469053	1e-14	2.90521102505197
	11.0051940469053	-75.6378591944556	2.15763326230697
	72.5
 119	7.42247096773531e-08	0.868467723502194	5.25603566836084
	58.7676485742354	24.1610517588047	0
	13.7323514257646	1e-14	-4.85293575015046
	13.7323514257646	-75.4418429823895	2.21459269493059
	72.5
 120	7.42972997755181e-08	0.890358002596613	5.36272209961497
	55.97073107889	26.7070794929686	0
	16.52926892111	1e-14	-7.42410808908362
	16.52926892111	-75.2502000769619	2.27041290662136
	72.5
 121	7.43783076205734e-08	0.915539828789944	5.41009006613955
	52.7777852432027	27.5077493772978	0
	19.7222147567973	1e-14	-8.20083020086627
	19.7222147567973	-75.0303567481363	2.33462656341436
	72.5
 122	7.44731275731848e-08	0.946037473355661	5.44141510559141
	49.0163121781995	27.7177374836799	0
	23.4836878218005	1e-14	-8.42854529797509
	23.4836878218005	-74.7648061889918	2.41239555705694
	72.5
 123	7.46211956087122e-08	0.995868668639793	5.4832142717735
	43.1353899232836	27.7826367441824	0
	29.3646100767164	1e-14	-8.46043871966722
	29.3646100767164	-74.3318491648215	2.53946510503147
	72.5
 124	7.48846553323394e-08	1.09115542840568	5.56080830400465
	32.6745950104305	27.8067427419952	0
	39.8254049895695	1e-14	-8.52807532287499
	39.8254049895695	-73.5039245318752	2.78244634243448
	72.5
 125	7.53173276661697e-08	1.2658554232361	5.71055500288626
	15.5174483560991	27.8571957026691	0
	56.9825516439009	1e-14	-8.53804897107552
	56.9825516439009	-71.9735316875648	3.22793132925206
	72.5
 126	7.54254957496273e-08	1.31304441985368	5.75284619595177
	11.2330162108615	27.8601824902393	0
	61.2669837891385	1e-14	-8.58257144296791
	61.2669837891385	-71.5564394765558	3.3482632706269
	72.5
 127	7.55877478748136e-08	1.38643337531927	5.82111147513403
	4.81119648258878	27.8667828276644	0
	67.6888035174112	1e-14	-8.54763002249306
	67.6888035174112	-70.9033444388843	3.53540510706413
	72.5
 128	7.575e-08	1.46253692968446	7.5
	0.145841595640491	5.66110409695033	0
	72.6458415956405	1e-14	24.9402098492403
	72.6458415956405	-70.2175234746364	3.72946917069538
	72.5
 129	7.57849126186365e-08	1.47913423739444	7.5
	0.068165142906679	2.67004823245832	0
	72.5681651429067	1e-14	2.67009005164644
	72.5681651429067	-70.0653270430772	3.77179230535582
	72.5
 130	7.58023664901773e-08	1.4874285561085	7.5
	0.0352943911390042	1.38776469233809	0
	72.535294391139	1e-14	1.38772409917024
	72.535294391139	-69.9890935453399	3.79294281807667
	72.5
 131	7.58372742332589e-08	1.50399961472102	7.50415469690431
	0.00415469690430825	0.164119437697934	0
	72.4958453030957	1e-14	-0.164078844228951
	72.4958453030957	-69.8357479777565	3.8351990175386
	72.5
 132	7.59070897194219e-08	1.53707975327994	7.53329248366281
	0.0332924836628052	1.32029657026268	0
	72.4667075163372	1e-14	-1.32033702740055
	72.4667075163372	-69.5255272047105	3.91955337086385
	72.5
 133	7.59419974625035e-08	1.55359074438996	7.53636049869979
	0.0363604986997927	1.44256131425329	0
	72.4636395013002	1e-14	-1.4425208568888
	72.4636395013002	-69.3686493564413	3.9616563981944
	72.5
 134	7.60118129486665e-08	1.58655682049644	7.53909369205358
	0.0390936920535836	1.55156753347564	0
	72.4609063079464	1e-14	-1.55160798825717
	72.4609063079464	-69.0513614699588	4.04571989226593
	72.5
 135	7.61514439209927e-08	1.65226284017757	7.54113038891596
	0.0411303889159598	1.63284765826151	0
	72.458869611084	1e-14	-1.63280720311102
	72.458869611084	-68.4027052278475	4.2132702424528
	72.5
 136	7.6430705865645e-08	1.78273979733977	7.54430738177621
	0.044307381776207	1.75972289039207	0
	72.4556926182238	1e-14	-1.75976334409061
	72.4556926182238	-67.0494937568298	4.54598648321641
	72.5
 137	7.69892297549496e-08	2.03969729362293	7.55080183405073
	0.0508018340507306	2.01941816687895	0
	72.4491981659493	1e-14	-2.01930361706596
	72.4491981659493	-64.1230580661305	5.20122809873846
	72.5
 138	7.81062775335588e-08	2.53563795275839	7.56315608770124
	0.0631560877012447	2.51467370170768	0
	72.4368439122988	1e-14	-2.51478060754018
	72.4368439122988	-57.4213156902685	6.4658767795339
	72.5
 139	8.03403730907771e-08	3.44089772599809	7.5857383685
	0.085738368500003	3.42416161347025	0
	72.4142616315	1e-14	-3.42405379912784
	72.4142616315	-40.9084864520531	8.77428920129512
	72.5
 140	8.24982382839388e-08	4.18587574795249	7.60417549230769
	0.104175492307689	4.17074606127412	0
	72.3958245076923	1e-14	-4.17085138137117
	72.3958245076923	-21.5007616284455	10.6739831572789
	72.5
 141	8.42785457997681e-08	4.68910925792721	7.61665374557781
	0.116653745577807	4.67809664731463	0
	72.3833462544222	1e-14	-4.67799102824391
	72.3833462544222	-3.40879010477599	11.9572286077144
	72.5
 142	8.55735669540744e-08	4.98565889205645	7.62395303678231
	0.123953036782311	4.97564881821748	0
	72.3760469632177	1e-14	-4.97575416620332
	72.3760469632177	10.6761661614433	12.7134301747439
	72.5
 143	8.68500017042362e-08	5.21721888277252	7.62970260017461
	0.12970260017461	5.21042830462663	0
	72.3702973998254	1e-14	-5.21032295449593
	72.3702973998254	25.1212268435612	13.3039081510699
	72.5
 144	8.8477784935589e-08	5.4218887829321	7.63475664733801
	0.134756647338008	5.41709892593554	0
	72.365243352662	1e-14	-5.41720406852026
	72.365243352662	44.0667106791723	13.8258163964769
	72.5
 145	9.04227083062379e-08	5.5306294221182	7.63751781059469
	0.137517810594687	5.53012414070077	0
	72.3624821894053	1e-14	-5.53001897118169
	72.3624821894053	67.0054978457555	14.1031050264014
	72.5
 146	9.26845226296407e-08	5.47138312392911	7.63615046796612
	0.136150467966118	5.47414326126637	0
	72.3638495320339	1e-14	-5.47424838708089
	72.3638495320339	93.3273022991044	13.9520269660192
	72.5
 147	9.5214465884355e-08	5.17650809033025	7.62906073358
	0.129060733580005	5.18420058604121	0
	72.37093926642	1e-14	-5.18409506151433
	72.37093926642	121.233414106456	13.2000956303421
	72.5
 148	9.80131663845483e-08	4.59158088287703	7.61480652707117