Title: // Class-D RF Power Amplifier - 300W, 13.56 MHz
Date: 9:33:03 PM, Sat Jun 27, 2026
Plotname: Transient Analysis `tran': time = (0 s -> 1 us)
Flags: real
No. Variables:       13
No. Points:     1541
Variables:	0	time	s
		1	L1:i	A plot=0 grid=0
		2	M1:vgs	V plot=0 grid=0
		3	M1:vds	V plot=0 grid=0
		4	M1:id	A plot=0 grid=0
		5	M2:vgs	V plot=0 grid=0
		6	M2:vds	V plot=0 grid=0
		7	M2:id	A plot=0 grid=0
		8	Vdd:i	A plot=0 grid=0
		9	mid	V plot=0 grid=0
		10	lc_out	V plot=0 grid=0
		11	rload	V plot=0 grid=0
		12	vdd	V plot=0 grid=0
Values:
 0	0	0	-36.24
	36.26	1e-14	0
	36.24	1e-14	-3.627e-11
	36.24	36.24	0
	72.5
 1	3.10609717933937e-11	3.74097474396136e-05	-35.3589785293519
	35.8985825989123	1e-14	0
	36.6014174010877	1e-14	19.298378117132
	36.6014174010877	36.2400978671605	9.53948559710147e-05
	72.5
 2	6.07968625113656e-11	0.000107500365679061	-34.5155414897275
	35.5525840098179	1e-14	0
	36.9474159901821	1e-14	19.2983781171314
	36.9474159901821	36.2402833995543	0.000274125932481606
	72.5
 3	1.20268643947309e-10	0.00031621634098327	-32.8286658836694
	34.8605883584382	1e-14	0
	37.6394116415618	1e-14	19.298378117133
	37.6394116415618	36.2408424329374	0.000806351669507338
	72.5
 4	2.39212206819197e-10	0.00114461913646564	-29.4548994979907
	33.4766122292414	1e-14	0
	39.0233877707586	1e-14	19.298378117133
	39.0233877707586	36.2431397079132	0.00291877879798738
	72.5
 5	4.77099332562972e-10	0.00444270514169812	-22.707245981474
	30.7087807160071	1e-14	0
	41.7912192839929	1e-14	19.2983781171372
	41.7912192839929	36.2529638192618	0.0113288981113302
	72.5
 6	9.52873584050522e-10	0.0175791081335379	-9.21097716951088
	25.1740794684682	1e-14	0
	47.3259205315318	1e-14	19.2983781171412
	47.3259205315318	36.2976078295797	0.0448267257405217
	72.5
 7	1.47643679202526e-09	0.0426987375914517	4.9030145471869
	18.3455428661765	11.4964409047464	0
	54.1544571338235	1e-14	7.80201420047589
	54.1544571338235	36.3952365679714	0.108881780858202
	72.5
 8	1.73821839601263e-09	0.0613146552779423	8.14780334235754
	11.1190675018523	118.459864911653	0
	61.3809324981477	1e-14	-99.1365073666468
	61.3809324981477	36.4716739589459	0.156352370958753
	72.5
 9	1.86910919800632e-09	0.073314897870332	8.14246202695576
	5.87809410670314	112.613379637514	0
	66.6219058932969	1e-14	-93.329879859868
	66.6219058932969	36.5210211415817	0.186952989569346
	72.5
 10	1.90183189850474e-09	0.0766674525188717	8.16577964862735
	4.59250370843789	112.338607125622	0
	67.9074962915621	1e-14	-93.0269228490743
	67.9074962915621	36.5347912490544	0.195502003923123
	72.5
 11	1.95091594925237e-09	0.0819480203358824	8.30192641841467
	2.76528844831992	95.9044993203222	0
	69.7347115516801	1e-14	-76.5815742025408
	69.7347115516801	36.5565391330718	0.2089674518565
	72.5
 12	2e-09	0.087497284645649	8.76312184766479
	1.26312184766479	58.4710769526235	0
	71.2368781523352	1e-14	-39.1996353681957
	71.2368781523352	36.5795376953049	0.223118075846405
	72.5
 13	2.02022818757585e-09	0.0898489811204465	8.53218367894664
	1.03218367894664	46.4832671255055	0
	71.4678163210534	1e-14	-46.4976116434105
	71.4678163210534	36.5894015043872	0.229114901857139
	72.5
 14	2.05425791989266e-09	0.0938225510560966	8.20983890016302
	0.709838900163021	30.7276237296614	0
	71.790161099837	1e-14	-30.6955040586892
	71.790161099837	36.6061833556743	0.239247505193046
	72.5
 15	2.08677948333607e-09	0.0976469047668962	8.00286378732757
	0.50286378732757	21.2070948027488	0
	71.9971362126724	1e-14	-21.2362238673838
	71.9971362126724	36.6225598045039	0.248999607155585
	72.5
 16	2.15182261022289e-09	0.105339765644354	7.75238473668945
	0.25238473668945	10.3044406708859	0
	72.2476152633105	1e-14	-10.2745143579831
	72.2476152633105	36.6562222250179	0.268616402393103
	72.5
 17	2.25473506475365e-09	0.117568240795803	7.5829218899236
	0.0829218899235968	3.31043226935921	0
	72.4170781100764	1e-14	-3.33555330386522
	72.4170781100764	36.7118091026938	0.299799014029298
	72.5
 18	2.28979738836711e-09	0.121741360271055	7.55946961112258
	0.0594696111225801	2.3667201818663	0
	72.4405303888774	1e-14	-2.34159393381678
	72.4405303888774	36.7313768878625	0.31044046869119
	72.5
 19	2.35992203559403e-09	0.130086715607109	7.53072209162248
	0.0307220916224793	1.21794012353547	0
	72.4692779083775	1e-14	-1.24305192122188
	72.4692779083775	36.7714440918235	0.331721124798127
	72.5
 20	2.50017133004788e-09	0.146760295907508	7.50861401400546
	0.00861401400545958	0.340476782233107	0
	72.4913859859945	1e-14	-0.315335122815314
	72.4913859859945	36.8552676769476	0.374238754564145
	72.5
 21	2.78066991895557e-09	0.179995583871199	7.50344554140027
	0.00344554140026787	0.136093250583911	0
	72.4965544585997	1e-14	-0.161221311107813
	72.4965544585997	37.037522515718	0.458988738871557
	72.5
 22	3.24231063271042e-09	0.234291855586794	7.50593273683955
	0.00593273683955431	0.234412055654197	0
	72.4940672631604	1e-14	-0.209264758891093
	72.4940672631604	37.3794375290726	0.597444231746323
	72.5
 23	4.0433873779661e-09	0.327092223559946	7.5077960060153
	0.00779600601529751	0.308110273904782	0
	72.4922039939847	1e-14	-0.333209676239832
	72.4922039939847	38.0944952024693	0.834085170077862
	72.5
 24	5.64554086847746e-09	0.505751379205208	7.51265922570975
	0.0126592257097542	0.500640463543472	0
	72.4873407742902	1e-14	-0.474956398834934
	72.4873407742902	39.9695901825777	1.28966601697328
	72.5
 25	8.84984784950017e-09	0.824406556281558	7.52045897773407
	0.0204589777340658	0.809951756709862	0
	72.4795410222659	1e-14	-0.835412322060332
	72.4795410222659	45.3164527549129	2.10223671851797
	72.5
 26	1.25650717899746e-08	1.10882708204708	7.52793268558395
	0.0279326855839486	1.10694199848857	0
	72.4720673144161	1e-14	-1.08146697717423
	72.4720673144161	53.6825717931138	2.82750905922005
	72.5
 27	1.64057742279139e-08	1.2837642519218	7.53219637367387
	0.0321963736738695	1.27663938490422	0
	72.4678036263261	1e-14	-1.30209916084314
	72.4678036263261	63.9044396288122	3.2735988424006
	72.5
 28	2.02064441031345e-08	1.32461384447772	7.53350925822519
	0.0335092582251946	1.3289320461887	0
	72.4664907417748	1e-14	-1.30347060484966
	72.4664907417748	74.5549721049053	3.37776530341817
	72.5
 29	2.40507688922977e-08	1.23221433272219	7.5311002385355
	0.031100238535501	1.2329940168112	0
	72.4688997614645	1e-14	-1.2584520794468
	72.4688997614645	84.7760320129507	3.14214654844158
	72.5
 30	2.7375e-08	1.05348013761755	7.52683146106315
	0.0268314610631535	1.0631441045909	0
	72.4731685389368	1e-14	-1.0376822393457
	72.4731685389368	92.4034264760789	2.68637435092473
	72.5
 31	2.75214739864764e-08	1.04274838054829	3.4097806778927
	1.76874013695029	1e-14	0
	70.7312598630497	1e-14	-19.298378117169
	70.7312598630497	92.7010296704262	2.65900837039813
	72.5
 32	2.77336221299085e-08	1.02616286564471	-2.55365416048242
	4.29123103585674	1e-14	0
	68.2087689641433	1e-14	-19.2983781171715
	68.2087689641433	93.1256681816833	2.61671530739401
	72.5
 33	2.81029424115547e-08	0.992339403090593	-12.937451117794
	8.68024534439545	1e-14	0
	63.8197546556045	1e-14	-19.2983781171759
	63.8197546556045	93.8324756142904	2.53046547788101
	72.5
 34	2.88415829748473e-08	0.906062151592527	-33.715956844086
	17.4473621498041	1e-14	0
	55.0526378501959	1e-14	-19.2983781171845
	55.0526378501959	95.104209467339	2.31045848656094
	72.5
 35	2.9375e-08	0.828514366899407	-48.7321214836837
	23.7678785163163	1e-14	0
	48.7321214836837	1e-14	-19.298378117191
	48.7321214836837	95.8907739423224	2.11271163559349
	72.5
 36	2.93989126232244e-08	0.824751785874089	-48.7272697316151
	23.7727302683849	1e-14	0
	48.7272697316151	1e-14	-2.37854180795694e-11
	48.7272697316151	95.9231410175361	2.10311705397893
	72.5
 37	2.94314121232145e-08	0.819635358931483	-48.7206961982636
	23.7793038017364	1e-14	0
	48.7206961982636	1e-14	-2.37889707932482e-11
	48.7206961982636	95.9669470649987	2.09007016527528
	72.5
 38	2.94896320057128e-08	0.810456215205041	-48.7090226886428
	23.7909773113572	1e-14	0
	48.7090226886428	1e-14	-2.38031816479634e-11
	48.7090226886428	96.0445016739299	2.06666334877285
	72.5
 39	2.96060717707093e-08	0.792046797984233	-48.6860708071183
	23.8139291928817	1e-14	0
	48.6860708071183	1e-14	-2.38239291928817e-11
	48.6860708071183	96.1960630581679	2.01971933485979
	72.5
 40	2.98389513007023e-08	0.755031116419675	-48.6417546982458
	23.8582453017542	1e-14	0
	48.6417546982458	1e-14	-2.38682453017542e-11
	48.6417546982458	96.4849526207835	1.92532934687017
	72.5
 41	3.03047103606883e-08	0.680274051628195	-48.5595259500999
	23.9404740499001	1e-14	0
	48.5595259500999	1e-14	-2.39504740499001e-11
	48.5595259500999	97.0054991118025	1.7346988316519
	72.5
 42	3.12362284806603e-08	0.528354553738153	-48.4210410907048
	24.0789589092952	1e-14	0
	48.4210410907048	1e-14	-2.40889589092952e-11
	48.4210410907048	97.8158272073056	1.34730411203229
	72.5
 43	3.30992647206044e-08	0.218903558999107	-48.2497991819541
	24.2502008180459	1e-14	0
	48.2497991819541	1e-14	-2.42602008180459e-11
	48.2497991819541	98.5077579628718	0.558204075447723
	72.5
 44	3.49871323603022e-08	-0.0957124115733124	-48.2211923897647
	24.2788076102353	1e-14	0
	48.2211923897647	1e-14	-2.42888076102353e-11
	48.2211923897647	97.9529006216594	-0.244066649511946
	72.5
 45	3.6875e-08	-0.40267651689919	-48.336925612462
	24.163074387538	1e-14	0
	48.336925612462	1e-14	-2.4173074387538e-11
	48.336925612462	96.1691928657945	-1.02682511809294
	72.5
 46	3.70029937892459e-08	-0.422972841719861	-48.4262009394367
	24.0737990605633	1e-14	0.639968946229559
	48.4262009394367	1e-14	-2.40837990605633e-11
	48.4262009394367	96.0022502231191	-1.07858074638565
	72.5
 47	3.72018844811864e-08	-0.454377057291976	-48.5656949489122
	23.9343050510878	1e-14	1.63442240593185
	48.5656949489122	1e-14	-2.39443050510878e-11
	48.5656949489122	95.7365346558694	-1.15866149609454
	72.5
 48	3.74796961360607e-08	-0.497781733691298	-48.7630973371099
	23.7369026628901	1e-14	3.02348068030371
	48.7630973371099	1e-14	-2.37469026628901e-11
	48.7630973371099	95.3444476146402	-1.26934342091281
	72.5
 49	3.77087494947517e-08	-0.533185161764371	-48.8355250683108
	23.6644749316892	1e-14	4.16874747375838
	48.8355250683108	3.28486911483896	-2.36744749316892e-11
	48.8355250683108	95.002949266561	-1.35962216249915
	72.5
 50	3.78859718765586e-08	-0.56047060691777	-48.5066947262203
	23.9933052737797	1e-14	5.05485938279316
	48.5066947262203	17.7180297557437	-2.40033052737797e-11
	48.5066947262203	94.7271795939701	-1.42920004764031
	72.5
 51	3.81453214165924e-08	-0.601210786725267	-46.2600526333312
	26.2399473666688	1e-14	6.35160708296203
	46.2600526333312	58.6938032503991	-2.62499473666688e-11
	46.2600526333312	94.3027798640704	-1.53308750614943
	72.5
 52	3.83385544031464e-08	-0.633231492448669	-42.5715396093635
	29.9284603906365	1e-14	7.31777201573176
	42.5715396093635	102.551018273372	-2.99384603906365e-11
	42.5715396093635	93.9673664598659	-1.6147403057441
	72.5
 53	3.85438153428293e-08	-0.670457031391357	-36.1562645995613
	36.3437354004387	1e-14	8.34407671414645
	36.1562645995613	157.669180308412	-3.63537354004387e-11
	36.1562645995613	93.5877643872033	-1.70966543004796
	72.5
 54	3.87406103751851e-08	-0.710894972767217	-27.323620278159
	45.176379721841	1e-14	9.32805187592565
	27.323620278159	213.423851645687	-4.5186379721841e-11
	27.323620278159	93.1954527299361	-1.8127821805564
	72.5
 55	3.8875e-08	-0.742027302731415	-19.7713018186115
	52.7286981813885	1e-14	9.99999999999999
	19.7713018186115	249.727655715622	-5.27386981813885e-11
	19.7713018186115	92.9083443529004	-1.89216962196511
	72.5
 56	3.89108165955335e-08	-0.751005759193613	-17.6171080320484
	54.8828919679516	1e-14	10
	17.6171080320484	245.236080888372	-5.48928919679516e-11
	17.6171080320484	92.8282185027082	-1.91506468594371
	72.5
 57	3.89777592381453e-08	-0.768211484183073	-13.6589321123698
	58.8410678876302	1e-14	10
	13.6589321123698	236.983135664245	-5.88510678876302e-11
	13.6589321123698	92.6761519710351	-1.95893928466684
	72.5
 58	3.90356337515353e-08	-0.783760199865393	-10.3451062757488
	62.1548937242512	1e-14	10
	10.3451062757488	230.073684526422	-6.21648937242512e-11
	10.3451062757488	92.5409499736948	-1.99858850965675
	72.5
 59	3.91279316249919e-08	-0.809782172785668	-5.33721575509382
	67.1627842449062	1e-14	10
	5.33721575509382	212.603470222157	-6.71727842449062e-11
	5.33721575509382	92.3181252488559	-2.06494454060345
	72.5
 60	3.91631242527907e-08	-0.820077760501337	-3.66572718318396
	68.834272816816	1e-14	10
	3.66572718318396	175.050350860522	-6.8844272816816e-11
	3.66572718318396	92.2308512299721	-2.09119828927841
	72.5
 61	3.91979698944269e-08	-0.830433651662724	-2.37589961541325
	70.1241003845867	1e-14	10
	2.37589961541325	127.527880237911	-7.01341003845867e-11
	2.37589961541325	92.1432595275269	-2.11760581173995
	72.5
 62	3.92322710078557e-08	-0.840742441539826	-1.48380578584027
	71.0161942141597	1e-14	10
	1.48380578584027	85.5795390836411	-7.10261942141597e-11
	1.48380578584027	92.0559899849013	-2.14389322592656
	72.5
 63	3.9273302867241e-08	-0.853167834199748	-0.811781736929035
	71.688218263071	1e-14	10
	0.811781736929035	49.2241184198951	-7.1698218263071e-11
	0.811781736929035	91.9503645014426	-2.17557797720936
	72.5
 64	3.93171581930719e-08	-0.866510218231839	-0.415689613809502
	72.0843103861905	1e-14	10
	0.415689613809502	25.9231233992706	-7.20943103861905e-11
	0.415689613809502	91.8361105271462	-2.20960105649119
	72.5
 65	3.9358237629335e-08	-0.879033173495618	-0.222479068486858
	72.2775209315131	1e-14	10
	0.222479068486858	14.0600885754822	-7.22875209315131e-11
	0.222479068486858	91.7278940779205	-2.24153459241383
	72.5
 66	3.94022081568668e-08	-0.892442900166688	-0.116058821961812
	72.3839411780382	1e-14	10
	0.116058821961812	7.38784530604151	-7.23939411780382e-11
	0.116058821961812	91.6108346605806	-2.27572939542506
	72.5
 67	3.9452649614121e-08	-0.907818592403084	-0.0582823410012937
	72.4417176589987	1e-14	10
	0.0582823410012937	3.7245096916307	-7.24517176589987e-11
	0.0582823410012937	91.4750225888631	-2.31493741062787
	72.5
 68	3.95151266519891e-08	-0.926840105901178	-0.0293281191059617
	72.470671880894	1e-14	10
	0.0293281191059617	1.87785127438309	-7.2480671880894e-11
	0.0293281191059617	91.304577260327	-2.363442270048
	72.5
 69	3.95947479972554e-08	-0.951034679765661	-0.0180199523947036
	72.4819800476053	1e-14	10
	0.0180199523947036	1.15467559367974	-7.24919800476053e-11
	0.0180199523947036	91.0838184196571	-2.42513843340243
	72.5
 70	3.97017136906251e-08	-0.983447450150351	-0.0153426857194782
	72.4846573142805	1e-14	10
	0.0153426857194782	0.98329915453388	-7.24946573142805e-11
	0.0153426857194782	90.7810347675827	-2.50779099788339
	72.5
 71	3.98557962506908e-08	-1.02994500856858	-0.0157433992366938
	72.4842566007633	1e-14	10
	0.0157433992366938	1.00895343404653	-7.24942566007633e-11
	0.0157433992366938	90.3324354995137	-2.62635977184988
	72.5
 72	4.01061720482958e-08	-1.10499548392599	-0.0169517717883421
	72.4830482282117	1e-14	10
	0.0169517717883421	1.08630690186994	-7.24930482282117e-11
	0.0169517717883421	89.5723999483656	-2.81773848401128
	72.5
 73	4.06026674818025e-08	-1.25184700989831	-0.0192436689008325
	72.4807563310992	1e-14	10
	0.0192436689008325	1.2329872814296	-7.24907563310992e-11
	0.0192436689008325	87.953075859606	-3.1922098752407
	72.5
 74	4.1595658348816e-08	-1.53677401892037	-0.0237150698741693
	72.4762849301258	1e-14	10
	0.0237150698741693	1.51902499380499	-7.24862849301258e-11
	0.0237150698741693	84.280687291729	-3.91877374824695
	72.5
 75	4.35816400828428e-08	-2.06476098718146	-0.0320004803456227
	72.4679995196544	1e-14	10
	0.0320004803456227	2.04859257460906	-7.24779995196544e-11
	0.0320004803456227	75.3251899518371	-5.26514051731271
	72.5
 76	4.66408290313106e-08	-2.74363456899137	-0.042696717200288
	72.4573032827997	1e-14	10
	0.042696717200288	2.73137704992848	-7.24673032827997e-11
	0.042696717200288	57.9453489721521	-6.99626815092799
	72.5
 77	4.94001332297394e-08	-3.19054932575051	-0.0497641898362356
	72.4502358101638	1e-14	10
	0.0497641898362356	3.18198289723329	-7.24602358101638e-11
	0.0497641898362356	39.3863349221931	-8.1359007806638
	72.5
 78	5.18104613559479e-08	-3.43555000981059	-0.0536717608308686
	72.4463282391691	1e-14	10
	0.0536717608308686	3.43093622539512	-7.24563282391691e-11
	0.0536717608308686	21.7710793527823	-8.760652525017
	72.5
 79	5.36696950646823e-08	-3.52653271316401	-0.0551441404968516
	72.4448558595031	1e-14	10
	0.0551441404968516	3.52470820819187	-7.24548558595031e-11
	0.0551441404968516	7.76871294694154	-8.99265841856822
	72.5
 80	5.50782302326046e-08	-3.53766624976575	-0.0553569861427094
	72.4446430138573	1e-14	10
	0.0553569861427094	3.53826224382223	-7.24546430138573e-11
	0.0553569861427094	-2.84496764850593	-9.02104893690266
	72.5
 81	5.64660445534033e-08	-3.50027407637664	-0.0548021345276598
	72.4451978654723	1e-14	10
	0.0548021345276598	3.50292841177624	-7.24551978654723e-11
	0.0548021345276598	-13.1404201314144	-8.92569889476044
	72.5
 82	5.79722041712485e-08	-3.40667531052266	-0.0533705162842796
	72.4466294837157	1e-14	10
	0.0533705162842796	3.4117484554331	-7.24566294837157e-11
	0.0533705162842796	-23.9687307774744	-8.68702204183278
	72.5
 83	5.98499085476338e-08	-3.21624000319685	-0.0504224619664691
	72.4495775380335	1e-14	10
	0.0504224619664691	3.22393094781755	-7.24595775380335e-11
	0.0504224619664691	-36.7127772001769	-8.20141200815198
	72.5
 84	6.20458288946452e-08	-2.89763869227058	-0.0454705408879696
	72.454529459112	1e-14	10
	0.0454705408879696	2.90828090230289	-7.2464529459112e-11
	0.0454705408879696	-50.1828870770343	-7.38897866528996
	72.5
 85	6.425e-08	-2.48590726030228	-0.0390536089152323
	72.4609463910848	1e-14	10
	0.0390536089152323	2.49893303764523	-7.24709463910848e-11
	0.0390536089152323	-61.7566489819097	-6.33906351377082
	72.5
 86	6.43797586118302e-08	-2.45891508626783	-0.0142382782143312
	72.4857617217857	1e-14	9.35120694084876
	0.0142382782143312	0.821397149219502	-7.24957617217857e-11
	0.0142382782143312	-62.3666815087656	-6.27023346998297
	72.5
 87	6.45804733769386e-08	-2.41685596834242	0.0021900784936067
	72.5021900784936	1e-14	8.34982319380065
	0.0021900784936067	0.10481276557506	-7.25121900784936e-11
	-0.0021900784936067	-63.3005363345964	-6.16298271927317
	72.5
 88	6.48856070496266e-08	-2.3517463843708	0.000160195113127675
	72.5001601951131	1e-14	6.82212494698002
	0.000160195113127675	0.00525257912348668	-7.25101601951131e-11
	-0.000160195113127675	-64.6824442885243	-5.99695328014555
	72.5
 89	6.53463325637786e-08	-2.25084640080983	0.0079171166693076
	72.5079171166693	1e-14	4.52625429777651
	0.0079171166693076	0.079890498417059	-7.25179171166693e-11
	-0.0079171166693076	-66.6810343595761	-5.73965832206507
	72.5
 90	6.58296105352341e-08	-2.14182724995354	0.0288435523327105
	72.5288435523327	1e-14	2.13079087616201
	0.0288435523327105	0	-7.25388435523327e-11
	-0.0288435523327105	-68.6614210687301	-5.46165948738152
	72.5
 91	6.625e-08	-2.04450843668928	0.0618475678366143
	72.5618475678366	1e-14	0.0618475678366143
	0.0618475678366143	0	-7.25718475678366e-11
	-0.0618475678366143	-70.2854830083509	-5.21349651355765
	72.5
 92	6.63100433188984e-08	-2.03039878952607	0.0318563466491349
	72.5318563466491	1e-14	0.0318563466491349
	0.0318563466491349	0	-7.25418563466491e-11
	-0.0318563466491349	-70.5088903910856	-5.17751691329147
	72.5
 93	6.64301217452014e-08	-2.00208092170174	-0.0277037367196535
	72.4722962632803	1e-14	0
	0.0277037367196535	1e-14	-7.24822962632803e-11
	0.0277037367196535	-70.9518009109242	-5.10530635033943
	72.5
 94	6.65416041801123e-08	-1.97561172473544	-0.082248842272565
	72.4177511577274	1e-14	0
	0.082248842272565	1e-14	-7.24277511577274e-11
	0.082248842272565	-71.3560521837154	-5.03780989807537
	72.5
 95	6.67645690499341e-08	-1.92217048493218	-0.189147469666088
	72.3108525303339	1e-14	0
	0.189147469666088	1e-14	-7.23208525303339e-11
	0.189147469666088	-72.1443179828259	-4.90153473657706
	72.5
 96	6.72104987895777e-08	-1.81336078174983	-0.394045097862981
	72.105954902137	1e-14	0
	0.394045097862981	1e-14	-7.2115954902137e-11
	0.394045097862981	-73.6389643941599	-4.62406999346206
	72.5
 97	6.81023582688649e-08	-1.58871882140739	-0.767260039386144
	71.7327399606139	1e-14	0
	0.767260039386144	1e-14	-7.17427399606138e-11
	0.767260039386144	-76.2939752073776	-4.05123299458884
	72.5
 98	6.98860772274394e-08	-1.11700068726291	-1.36090573026269
	71.1390942697373	1e-14	0
	1.36090573026269	1e-14	-7.11490942697373e-11
	1.36090573026269	-80.2253952250962	-2.84835175252041
	72.5
 99	7.18180386137197e-08	-0.583368329023176	-1.76497864761237
	70.7350213523876	1e-14	0
	1.76497864761237	1e-14	-7.07450213523876e-11
	1.76497864761237	-82.359363862534	-1.4875892390091
	72.5
 100	7.375e-08	-0.0414350476486585	-1.9134559021369
	70.5865440978631	1e-14	0
	1.9134559021369	1e-14	-7.05965440978631e-11
	1.9134559021369	-82.2615786734838	-0.105659371504079
	72.5
 101	7.3792000247299e-08	-0.029585830243361	-0.722456058345714
	70.0975340496956	1e-14	0
	2.40246595030437	1e-14	19.2983781170969
	2.40246595030437	-82.2340070248169	-0.0754438671205705
	72.5
 102	7.38393109897698e-08	-0.0161974948966381	0.619211261263863
	69.5467716704708	1e-14	0
	2.95322832952916	1e-14	19.2983781170965
	2.95322832952916	-82.2021710708584	-0.0413036119864272
	72.5
 103	7.39339324747115e-08	0.0108238059847557	3.30301621980238
	68.4457172313406	1e-14	0
	4.05428276865936	1e-14	19.2983781171003
	4.05428276865936	-82.133807675339	0.0276007052611269
	72.5
 104	7.39745529528991e-08	0.0225260289764851	4.42032953606302
	67.9382114200974	7.01977836836017	0
	4.56178857990264	1e-14	12.2888804543475
	4.56178857990264	-82.1025258511318	0.0574413738900371
	72.5
 105	7.40174518376016e-08	0.0349662047092281	5.43699744730387
	67.2389239432404	30.9658223761307	0
	5.26107605675957	1e-14	-11.6759738164849
	5.26107605675957	-82.0681796235408	0.0891638220085317
	72.5
 106	7.40652211276719e-08	0.0489561207981994	6.24696743366314
	66.1381223267869	61.8676295309982	0
	6.36187767321315	1e-14	-42.5594560619896
	6.36187767321315	-82.0282405397368	0.124838108035408
	72.5
 107	7.41130621920306e-08	0.0631616486167748	6.73878437657601
	64.7162966953508	85.2683379471627	0
	7.78370330464915	1e-14	-65.9760934907449
	7.78370330464915	-81.986310238031	0.161062203972776
	72.5
 108	7.41642992529091e-08	0.078639858157146	7.0256090515183
	62.9536389351527	99.9584527705645	0
	9.54636106484735	1e-14	-80.6549381221964
	9.54636106484735	-81.9391115564315	0.200531638300722
	72.5
 109	7.42181633301264e-08	0.0952405303660472	7.17971631182084
	60.9531831067637	107.551235303233	0
	11.5468168932363	1e-14	-88.2591539882788
	11.5468168932363	-81.8868161117945	0.24286335243342
	72.5
 110	7.4276630591776e-08	0.113663210578593	7.26724438455777
	58.702020713516	111.151979631788	0
	13.797979286484	1e-14	-91.7790235163951
	13.797979286484	-81.8268446286553	0.289841186975411
	72.5
 111	7.43496867132639e-08	0.137288008939132	7.32962142994375
	55.8421528993884	112.793425343491	0
	16.6578471006116	1e-14	-93.5304797883934
	16.6578471006116	-81.747097645197	0.350084422794787
	72.5
 112	7.44504305618802e-08	0.170979821983306	7.38894528050665
	51.8717228052969	113.351622624643	0
	20.6282771947031	1e-14	-93.9904656395927
	20.6282771947031	-81.6281451307729	0.43599854605743
	72.5
 113	7.460106237923e-08	0.223765533388322	7.46803710224432
	45.9255419330453	113.388737665673	0
	26.5744580669548	1e-14	-94.1355688002065
	26.5744580669548	-81.4302849600199	0.570602110140222
	72.5
 114	7.48545612313555e-08	0.319086929274275	7.60878997529147
	35.9263407210731	113.244903832144	0
	36.5736592789269	1e-14	-93.893267051351
	36.5736592789269	-81.0408191492783	0.813671669649402
	72.5
 115	7.53615589356064e-08	0.533851547992942	7.94097261518806
	15.978615190931	112.881108658693	0
	56.521384809069	1e-14	-93.6330378661653
	56.521384809069	-80.0331291057566	1.361321447382
	72.5
 116	7.575e-08	0.719175497138541	9.32672309792281
	1.82672309792281	90.2049486439292	0
	70.6732769020772	1e-14	-70.6170651712245
	70.6732769020772	-79.0427581853026	1.83389751770328
	72.5
 117	7.57747991305673e-08	0.731578643960709	8.92188669874757
	1.42188669874757	67.0535400672364	0
	71.0781133012524	1e-14	-67.0898377902021
	71.0781133012524	-78.9725290666255	1.86552554209981
	72.5
 118	7.5824397391702e-08	0.75642407045097	8.30637147466814
	0.80637147466814	35.3270438147876	0
	71.6936285253319	1e-14	-35.2895838557695
	71.6936285253319	-78.8306600937578	1.92888137964997
	72.5
 119	7.59216019264914e-08	0.805234195528093	7.77036441167822
	0.270364411678216	11.0645542055666	0
	72.2296355883218	1e-14	-11.1017780603162
	72.2296355883218	-78.5447046309339	2.05334719859664
	72.5
 120	7.59651145636222e-08	0.827098617634231	7.68075622114307
	0.180756221143071	7.31068661328261	0
	72.3192437788569	1e-14	-7.27281869492735
	72.3192437788569	-78.4133896041636	2.10910147496729
	72.5
 121	7.60521398378836e-08	0.870796308376746	7.58456252348192
	0.0845625234819209	3.37667071103633	0
	72.4154374765181	1e-14	-3.41142148703382
	72.4154374765181	-78.1447692463838	2.2205305863607
	72.5
 122	7.61840715308175e-08	0.936922363152664	7.53596222981399
	0.0359622298139897	1.42668406255118	0
	72.464037770186	1e-14	-1.39112349464597
	72.464037770186	-77.7224293123614	2.38915202603929
	72.5
 123	7.62406371620992e-08	0.9652214384307	7.53078015078692
	0.0307801507869243	1.22025133895967	0
	72.4692198492131	1e-14	-1.25580934351615
	72.4692198492131	-77.5358028779289	2.46131466799828
	72.5
 124	7.63537684246625e-08	1.02171373250939	7.52671774138786
	0.0267177413878557	1.05862198340163	0
	72.4732822586121	1e-14	-1.02305865666372
	72.4732822586121	-77.1526150976879	2.60537001789894
	72.5
 125	7.65800309497892e-08	1.13425060473852	7.52722929323937
	0.0272292932393725	1.07896519052461	0
	72.4727707067606	1e-14	-1.11452511336477
	72.4727707067606	-76.3466950787921	2.89233904208322
	72.5
 126	7.70325560000426e-08	1.3573754547454	7.53300635094355
	0.0330063509435519	1.30889889623259	0
	72.4669936490564	1e-14	-1.27331322857315
	72.4669936490564	-74.5782339370399	3.46130740960078
	72.5
 127	7.79376061005494e-08	1.79466259623674	7.54393770924483
	0.0439377092448296	1.74495424470835	0
	72.4560622907552	1e-14	-1.78053117559293
	72.4560622907552	-70.4283087955534	4.57638962040368
	72.5
 128	7.97477063015629e-08	2.62452649747331	7.56479661523755
	0.0647966152375545	2.58056150095582	0
	72.4352033847624	1e-14	-2.54497276063615
	72.4352033847624	-59.8023951379943	6.69254256855694
	72.5
 129	8.22958888376999e-08	3.66371817476013	7.59070753843976
	0.0907075384397587	3.62502328398551	0
	72.4092924615602	1e-14	-3.66060452029812
	72.4092924615602	-40.1060784282093	9.34248134563833
	72.5
 130	8.45100037226319e-08	4.41644115423742	7.60947978760056
	0.109479787600563	4.38620881599464	0
	72.3905202123994	1e-14	-4.35062643386375
	72.3905202123994	-19.1542932954833	11.2619249433054
	72.5
 131	8.6199908640883e-08	4.88140176936886	7.62102221011533
	0.121022210115328	4.8561065813335	0
	72.3789777898847	1e-14	-4.89168790837609
	72.3789777898847	-1.25324959314402	12.4475745118906
	72.5
 132	8.74764182974239e-08	5.16392540058048	7.62808288496504
	0.128082884965039	5.14425256449985	0
	72.371917115035	1e-14	-5.10867121852674
	72.371917115035	13.1086294276718	13.1680097714802
	72.5
 133	8.88171101206693e-08	5.39356774073298	7.63381307085291
	0.133813070852909	5.37849335025347	0
	72.3661869291471	1e-14	-5.41407457750003
	72.3661869291471	28.7520309360486	13.7535977388691
	72.5
 134	9.05000961371044e-08	5.58145874269287	7.63857739149472
	0.138577391494721	5.57351859158198	0
	72.3614226085053	1e-14	-5.53793736303656
	72.3614226085053	48.8809573544618	14.2327197938668
	72.5
 135	9.25028315401182e-08	5.65725679347844	7.64061331960841
	0.140613319608406	5.65693243076678	0
	72.3593866803916	1e-14	-5.69251359407663
	72.3593866803916	73.0191077974669	14.42600482337
	72.5
 136	9.48122495497427e-08	5.5468888060005	7.63814710458028
	0.138147104580284	5.55589502040257	0
	72.3618528954197	1e-14	-5.520313815468
	72.3618528954197	100.264324354815	14.1445664553012
	72.5
 137	9.73903494491728e-08	5.18419125750334	7.62950690616606
	0.129506906166057	5.20243146041821	0
	72.3704930938339	1e-14	-5.23801244286236
	72.3704930938339	128.771143938589	13.2196877066335
	72.5
 138	9.92576747245864e-08	4.77453262087388	7.61962868645183
	0.119628686451833	4.79929991712628	0
	72.3803713135482	1e-14	-4.76371857812297
	72.3803713135482	147.509681233225	12.1750581832284
	72.5
 139	1.01125e-07	4.25495379646183	7.6069939421248
	0.106993942124802	4.28519525161285	0
	72.3930060578752	1e-14	-4.32077615714968
	72.3930060578752	164.121976732139	10.8501321809777
	72.5
 140	1.01237736092385e-07	4.21962726838234	4.41112148016512
	1.42056517557801	4.15494954465524	0
	71.079434824422	1e-14	-23.453019844543
	71.079434824422	165.044030871834	10.760049534375
	72.5
 141	1.01416983204508e-07	4.16237447382027	-0.579890230072195
	3.59943795024304	1e-14	0
	68.900562049757	1e-14	-19.2986859344516
	68.900562049757	166.496386890484	10.6140549082417
	72.5
 142	1.01676776535381e-07	4.07551022964943	-7.68548731847476
	6.88557409675811	1e-14	0
	65.6144259032419	1e-14	-19.298070299893
	65.6144259032419	168.551635734297	10.392551085606
	72.5
 143	1.02196363197127e-07	3.88808427739092	-21.9142116761793
	13.4403162088888	1e-14	0
	59.0596837911112	1e-14	-19.2986859344617
	59.0596837911112	172.475590497964	9.91461490734685
	72.5
 144	1.02684743977649e-07	3.69558480112454	-35.311195489915
	19.5785636160553	1e-14	0
	52.9214363839447	1e-14	-19.2980702999057
	52.9214363839447	175.924842603475	9.42374124286757
	72.5
 145	1.03125e-07	3.50885036598099	-47.4085850042534
	25.0914149957466	1e-14	0
	47.4085850042534	1e-14	-19.2986859344726
	47.4085850042534	178.822920825724	8.94756843325152
	72.5
 146	1.031467243323e-07	3.49932022912867	-47.3898834268678
	25.1101165731322	1e-14	0
	47.3898834268678	1e-14	-2.51212384227983e-11
	47.3898834268678	178.960364499055	8.9232665842781
	72.5
 147	1.03177209563297e-07	3.48593571808132	-47.363690144043
	25.136309855957	1e-14	0
	47.363690144043	1e-14	-2.51461074185499e-11
	47.363690144043	179.152773507716	8.88913608110737
	72.5