Title: // Class-D RF Power Amplifier - 300W, 13.56 MHz
Date: 9:13:11 PM, Sat Jun 27, 2026
Plotname: Transient Analysis `tran': time = (0 s -> 3 us)
Flags: real
No. Variables:       13
No. Points:     4124
Variables:	0	time	s
		1	L1:i	A plot=0 grid=0
		2	M1:vgs	V plot=0 grid=0
		3	M1:vds	V plot=0 grid=0
		4	M1:id	A plot=0 grid=0
		5	M2:vgs	V plot=0 grid=0
		6	M2:vds	V plot=0 grid=0
		7	M2:id	A plot=0 grid=0
		8	Vdd:i	A plot=0 grid=0
		9	mid	V plot=0 grid=0
		10	lc_out	V plot=0 grid=0
		11	rload	V plot=0 grid=0
		12	vdd	V plot=0 grid=0
Values:
 0	0	0	-33.391
	39.109	2.859e-12	0
	33.391	2.859e-12	-4.1968e-11
	33.391	33.391	0
	72.5
 1	5.13731550070266e-11	0	-32.5283685664093
	37.9167052333097	2.859e-12	0
	34.5832947666903	2.859e-12	16.7583199999591
	34.5832947666903	34.5832947666903	0
	72.5
 2	1.02527960604024e-10	0	-31.6732997166599
	36.7255818591792	2.859e-12	0
	35.7744181408208	2.859e-12	16.7583199999603
	35.7744181408208	35.7744181408208	0
	72.5
 3	2.04837571798018e-10	3.46944695195361e-18	-29.974204669386
	34.3322924586933	2.859e-12	0
	38.1677075413067	2.859e-12	16.7583199999627
	38.1677075413067	38.1677075413067	0
	72.5
 4	4.09456794186006e-10	-3.46944695195361e-18	-26.6164823871496
	29.5052458454102	2.859e-12	0
	42.9947541545898	2.859e-12	16.7583199999678
	42.9947541545898	42.9947541545898	0
	72.5
 5	8.18695238961983e-10	1.04083408558609e-17	-20.0390607309863
	19.7131297105343	2.859e-12	0
	52.7868702894657	2.859e-12	16.7583199999773
	52.7868702894657	52.7868702894657	0
	72.5
 6	1.40934761948099e-09	-1.53326745535395e-17	-10.80245519022
	5.32364003054032	2.859e-12	0
	67.1763599694597	2.859e-12	16.758319999992
	67.1763599694597	67.1763599694597	0
	72.5
 7	1.55701071461074e-09	-2.46159344653292e-18	-8.53195944155064
	1.68761197401962	2.859e-12	0
	70.8123880259804	2.859e-12	16.7583199999953
	70.8123880259804	70.8123880259804	0
	72.5
 8	1.77850535730537e-09	-3.36969008604159e-18	-1.35978570778514
	3.79134350074021	2.859e-12	0
	76.2913435007402	2.859e-12	16.7583200000011
	76.2913435007402	76.2913435007402	0
	72.5
 9	1.88818292787681e-09	1.07868609931827e-18	3.02731711507251
	6.51469218655247	2.859e-12	0
	79.0146921865525	2.859e-12	16.7583200000035
	79.0146921865525	79.0146921865525	0
	72.5
 10	2e-09	-4.92413957660297e-18	7.5
	6.32296165863541	92.6867053576029	0
	78.8229616586354	2.859e-12	143.227118412084
	78.8229616586354	78.8229616586354	0
	72.5
 11	2.02217535270317e-09	-6.11460874246139e-18	7.5
	5.14456729023883	92.6867053576029	0
	77.6445672902388	2.859e-12	92.6867053576023
	77.6445672902388	77.6445672902388	0
	72.5
 12	2.06652605810952e-09	1.92600285414507e-17	7.5
	3.0211295556074	83.9103097376878	0
	75.5211295556074	2.859e-12	80.8268040111006
	75.5211295556074	75.5211295556074	0
	72.5
 13	2.10771221258769e-09	2.04537208824337e-17	7.5
	1.63951388998699	56.5609316299842	0
	74.139513889987	2.859e-12	51.976091909251
	74.139513889987	74.139513889987	0
	72.5
 14	2.16777907497951e-09	9.21892985853099e-19	7.5
	0.55844567322103	22.2037974404631	0
	73.058445673221	2.859e-12	21.5606391413144
	73.058445673221	73.058445673221	0
	72.5
 15	2.19781250617542e-09	-9.61589886724839e-19	7.5
	0.31998551113503	13.0939816085897	0
	72.819985511135	2.859e-12	11.2530327060315
	72.819985511135	72.819985511135	0
	72.5
 16	2.25787936856724e-09	6.2796566368336e-19	7.5
	0.0919007547140183	3.86264382542104	0
	72.591900754714	2.859e-12	4.49206330924924
	72.591900754714	72.591900754714	0
	72.5
 17	2.27627906782316e-09	-5.8256428662442e-20	7.5
	0.0647941170948059	2.73188348799293	0
	72.5647941170948	2.859e-12	1.62716528054164
	72.5647941170948	72.5647941170948	0
	72.5
 18	2.313078466335e-09	3.88208719348179e-19	7.5
	0.0314206794162004	1.32987859308334	0
	72.5314206794162	2.859e-12	2.14128942011899
	72.5314206794162	72.5314206794162	0
	72.5
 19	2.38667726335869e-09	-1.16841033705712e-19	7.5
	0.00564374361427156	0.239579171366079	0
	72.5056437436143	2.859e-12	-0.685395284551586
	72.5056437436143	72.5056437436143	0
	72.5
 20	2.53387485740606e-09	2.20033167793201e-19	7.50091125294142
	0.000911252941421026	0.0387121224139127	0
	72.4990887470586	2.859e-12	0.870593100440536
	72.4990887470586	72.4990887470586	0
	72.5
 21	2.76445224048342e-09	-2.58108892318498e-18	7.5
	0.000357025992897775	0.015165082207816	0
	72.5003570259929	2.859e-12	-0.893437607883736
	72.5003570259929	72.5003570259929	0
	72.5
 22	3.16183640237661e-09	4.02221041730104e-19	7.50020638769709
	0.000206387697090804	0.00876711641680685	0
	72.4997936123029	2.859e-12	0.899333238651999
	72.4997936123029	72.4997936123029	0
	72.5
 23	3.956604726163e-09	-1.94853213853974e-17	7.5
	0.000143691516370836	0.00610360860847161	0
	72.5001436915164	2.859e-12	-0.901169421980335
	72.5001436915164	72.5001436915164	0
	72.5
 24	5.54614137373577e-09	3.85639802629051e-18	7.50013091146367
	0.000130911463671168	0.00556092312643295	0
	72.4998690885363	2.859e-12	0.901886930967486
	72.4998690885363	72.4998690885363	0
	72.5
 25	8.72521466888131e-09	-2.30427785848016e-18	7.5
	0.000120056211116548	0.00509966159886798	0
	72.5001200562111	2.859e-12	-0.902215352915309
	72.5001200562111	72.5001200562111	0
	72.5
 26	1.14927426543517e-08	-2.58477613488712e-18	7.5
	4.98728620357269e-06	0.000211849160854563	0
	72.5000049872862	2.859e-12	0.000203036785261901
	72.5000049872862	72.5000049872862	0
	72.5
 27	1.46259467687585e-08	-6.6194321934659e-19	7.50000468946439
	4.68946439013962e-06	0.000199198553613964	0
	72.4999953105356	2.859e-12	-0.000190197627825128
	72.4999953105356	72.4999953105356	0
	72.5
 28	1.79808091410773e-08	-3.02222611739109e-19	7.5
	4.40178253313661e-06	0.000186978240685569	0
	72.5000044017825	2.859e-12	0.000178930040944936
	72.5000044017825	72.5000044017825	0
	72.5
 29	2.26779045705386e-08	6.79727115786426e-20	7.50000420868831
	4.2086883098591e-06	0.000178776190494705	0
	72.4999957913117	2.859e-12	-0.000171308221684409
	72.4999957913117	72.4999957913117	0
	72.5
 30	2.7375e-08	6.56384654980708e-20	7.5
	4.02354390871551e-06	0.000170911486288394	0
	72.5000040235439	2.859e-12	0.000164020868360939
	72.5000040235439	72.5000040235439	0
	72.5
 31	2.74375e-08	-1.38121804020175e-17	5.96262206369697
	0.962622063697026	21.9752697537527	0
	71.537377936303	2.859e-12	-53.7040570655813
	71.537377936303	71.537377936303	0
	72.5
 32	2.74680074924104e-08	2.01326013718794e-16	5.2401869772502
	1.46048667366765	19.5318991677403	0
	71.0395133263324	2.859e-12	-46.4259443628801
	71.0395133263324	71.0395133263324	0
	72.5
 33	2.75290224772313e-08	1.36286192431683e-17	4.13443896172397
	2.79533805097621	4.85166718147268	0
	69.7046619490238	2.859e-12	-14.6974980923463
	69.7046619490238	69.7046619490238	0
	72.5
 34	2.76087502120654e-08	-2.3583146291494e-18	3.04338383819925
	4.89339232081693	2.859e-12	0
	67.6066076791831	2.859e-12	-23.6708090891369
	67.6066076791831	67.6066076791831	0
	72.5
 35	2.77071270934884e-08	3.35921524852205e-16	1.52427323690218
	7.30935697643736	2.859e-12	0
	65.1906430235626	2.859e-12	-9.84583091088092
	65.1906430235626	65.1906430235626	0
	72.5
 36	2.78038240836905e-08	1.65666660379015e-16	0.024379803166795
	9.677343150787	2.859e-12	0
	62.822656849213	2.859e-12	-23.670809089142
	62.822656849213	62.822656849213	0
	72.5
 37	2.79671825048592e-08	-3.60613554920179e-20	-2.52493050144897
	13.6623696929194	2.859e-12	0
	58.8376303070806	2.859e-12	-9.8458309108871
	58.8376303070806	58.8376303070806	0
	72.5
 38	2.82938993471966e-08	3.18792587825202e-18	-7.68770518329812
	21.5682687045666	2.859e-12	0
	50.9317312954334	2.859e-12	-23.6708090891539
	50.9317312954334	50.9317312954334	0
	72.5
 39	2.88344496735983e-08	-1.09206206774525e-17	-16.4588896163993
	34.4190973275331	2.859e-12	0
	38.0809026724669	2.859e-12	-9.84583091090789
	38.0809026724669	38.0809026724669	0
	72.5
 40	2.9375e-08	-4.92655453252812e-17	-25.6252690761112
	46.8747309238888	2.859e-12	0
	25.6252690761112	2.859e-12	-23.670809089179
	25.6252690761112	25.6252690761112	0
	72.5
 41	2.93870921282654e-08	1.83658274851282e-19	-25.6252690760574
	46.8747309239426	2.859e-12	0
	25.6252690760574	2.859e-12	-4.97337309239426e-11
	25.6252690760574	25.6252690760574	0
	72.5
 42	2.94077202821314e-08	-1.91037021079704e-21	-25.6252690760576
	46.8747309239424	2.859e-12	0
	25.6252690760576	2.859e-12	-4.97337309239424e-11
	25.6252690760576	25.6252690760576	0
	72.5
 43	2.94489765898634e-08	1.60514296063415e-24	-25.6252690760579
	46.8747309239421	2.859e-12	0
	25.6252690760579	2.859e-12	-4.9737991503207e-11
	25.6252690760579	25.6252690760579	0
	72.5
 44	2.95314892053276e-08	-3.69285511256586e-29	-25.6252690760586
	46.8747309239414	2.859e-12	0
	25.6252690760586	2.859e-12	-4.97337309239414e-11
	25.6252690760586	25.6252690760586	0
	72.5
 45	2.96965144362558e-08	-6.40949485492072e-31	-25.6252690760599
	46.8747309239401	2.859e-12	0
	25.6252690760599	2.859e-12	-4.97337309239401e-11
	25.6252690760599	25.6252690760599	0
	72.5
 46	3.00265648981122e-08	1.04031031876021e-29	-25.6252690760626
	46.8747309239374	2.859e-12	0
	25.6252690760626	2.859e-12	-4.97337309239374e-11
	25.6252690760626	25.6252690760626	0
	72.5
 47	3.06866658218251e-08	-1.16850021585862e-29	-25.6252690760679
	46.8747309239321	2.859e-12	0
	25.6252690760679	2.859e-12	-4.97337309239321e-11
	25.6252690760679	25.6252690760679	0
	72.5
 48	3.20068676692509e-08	7.24765956671805e-30	-25.6252690760786
	46.8747309239214	2.859e-12	0
	25.6252690760786	2.859e-12	-4.97337309239214e-11
	25.6252690760786	25.6252690760786	0
	72.5
 49	3.46472713641024e-08	9.36772324949952e-31	-25.6252690760999
	46.8747309239001	2.859e-12	0
	25.6252690760999	2.859e-12	-4.97337309239001e-11
	25.6252690760999	25.6252690760999	0
	72.5
 50	3.6875e-08	2.87121258910561e-31	-25.6252690761179
	46.8747309238821	2.859e-12	0
	25.6252690761179	2.859e-12	-4.97337309238821e-11
	25.6252690761179	25.6252690761179	0
	72.5
 51	3.70117994505256e-08	2.47227751489833e-31	-25.7743858433786
	46.7256141566214	2.859e-12	0.683997252627918
	25.7743858433786	2.859e-12	-4.95846141566214e-11
	25.7743858433786	25.7743858433786	0
	72.5
 52	3.72197107516741e-08	1.86596579337047e-31	-26.0012589428463
	46.4987410571537	2.859e-12	1.72355375837072
	26.0012589428463	2.859e-12	-4.93577410571537e-11
	26.0012589428463	26.0012589428463	0
	72.5
 53	3.75276878363018e-08	9.67841856190725e-32	-26.3313577466188
	46.1686422533812	2.859e-12	3.26343918150888
	26.3313577466188	0.0790412697265544	-4.90276422533812e-11
	26.3313577466188	26.3313577466188	0
	72.5
 54	3.76207709006144e-08	2.22044604925031e-16	-26.3896504334388
	46.1103495665612	2.859e-12	3.72885450307185
	26.3896504334388	1.71058321817538	-4.89693495665612e-11
	26.3896504334388	26.3896504334388	0
	72.5
 55	3.78069370292396e-08	4.2858493566775e-19	-25.9614873801202
	46.5385126198798	2.859e-12	4.65968514619779
	25.9614873801202	11.2989588967672	-4.93975126198798e-11
	25.9614873801202	25.9614873801202	0
	72.5
 56	3.79644460542623e-08	-8.80248524058703e-16	-24.6063068021057
	47.8936931978943	2.859e-12	5.44723027131147
	24.6063068021057	25.9976681135158	-5.07526931978943e-11
	24.6063068021057	24.6063068021057	0
	72.5
 57	3.81130451439451e-08	-5.17229973370532e-16	-22.0337768570118
	50.4662231429882	2.859e-12	6.19022571972571
	22.0337768570118	45.3994112896054	-5.33252231429882e-11
	22.0337768570118	22.0337768570118	0
	72.5
 58	3.82501516418135e-08	-4.23412426713311e-17	-18.2384530161333
	54.2615469838667	2.859e-12	6.87575820906745
	18.2384530161333	68.0667491782361	-5.71205469838667e-11
	18.2384530161333	18.2384530161333	0
	72.5
 59	3.83853892977842e-08	-3.30521165867196e-16	-12.9656356945392
	59.5343643054608	2.859e-12	7.55194648892113
	12.9656356945392	94.9064142862972	-6.23933643054608e-11
	12.9656356945392	12.9656356945392	0
	72.5
 60	3.85212592382953e-08	-4.44624777083396e-17	-6.20245155694077
	66.2975484430592	2.859e-12	8.23129619147638
	6.20245155694077	126.353370331789	-6.91565484430592e-11
	6.20245155694077	6.20245155694077	0
	72.5
 61	3.85658374914207e-08	8.55428563255436e-18	-3.94626246023944
	68.5537375397606	2.859e-12	8.45418745710343
	3.94626246023944	128.489413047379	-7.14127375397606e-11
	3.94626246023944	3.94626246023944	0
	72.5
 62	3.85808276217851e-08	1.03209630574103e-18	-3.29931629248809
	69.2006837075119	2.859e-12	8.52913810892553
	3.29931629248809	120.220193138677	-7.20596837075119e-11
	3.29931629248809	3.29931629248809	0
	72.5
 63	3.86108078825139e-08	-5.2287449316916e-17	-2.25031164422851
	70.2496883557715	2.859e-12	8.67903941256972
	2.25031164422851	96.7686968202216	-7.31086883557715e-11
	2.25031164422851	2.25031164422851	0
	72.5
 64	3.86444431169473e-08	-1.72852583186971e-16	-1.42773992091091
	71.0722600790891	2.859e-12	8.84721558473629
	1.42773992091091	69.4490719716651	-7.39312600790891e-11
	1.42773992091091	1.42773992091091	0
	72.5
 65	3.86934409573287e-08	8.41608754185515e-18	-0.72431856343608
	71.7756814365639	2.859e-12	9.09220478664356
	0.72431856343608	39.4396967908951	-7.46346814365639e-11
	0.72431856343608	0.72431856343608	0
	72.5
 66	3.87330939870909e-08	-6.86377484905362e-18	-0.428884547202965
	72.071115452797	2.859e-12	9.2904699354543
	0.428884547202965	24.7974385697312	-7.4930115452797e-11
	0.428884547202965	0.428884547202965	0
	72.5
 67	3.87735572073633e-08	-5.29655836310017e-18	-0.260904444035999
	72.239095555964	2.859e-12	9.49278603681636
	0.260904444035999	15.8121830886988	-7.5098095555964e-11
	0.260904444035999	0.260904444035999	0
	72.5
 68	3.88174275953813e-08	-4.8305678214072e-18	-0.161955259189764
	72.3380447408102	2.859e-12	9.71213797690655
	0.161955259189764	10.2391260472466	-7.51970447408102e-11
	0.161955259189764	0.161955259189764	0
	72.5
 69	3.88462137976907e-08	-1.77674644994409e-20	-0.124688967944046
	72.3753110320559	2.859e-12	9.85606898845327
	0.124688967944046	8.08038041367219	-7.5234311032056e-11
	0.124688967944046	0.124688967944046	0
	72.5
 70	3.8875e-08	-9.04125093241109e-20	-0.0999961708102723
	72.4000038291897	2.859e-12	9.99999999999999
	0.0999961708102723	6.63229107087855	-7.52590038291897e-11
	0.0999961708102723	0.0999961708102723	0
	72.5
 71	3.88993408973855e-08	5.53593118771336e-17	-0.0725414200372834
	72.4274585799627	2.859e-12	10
	0.0725414200372834	4.82103520986881	-7.52864585799627e-11
	0.0725414200372834	0.0725414200372834	0
	72.5
 72	3.89268860621552e-08	-8.40897998000658e-20	-0.0471169081640885
	72.4528830918359	2.859e-12	10
	0.0471169081640885	3.1371759497462	-7.53118830918359e-11
	0.0471169081640885	0.0471169081640885	0
	72.5
 73	3.89542914096227e-08	-1.32504305845653e-17	-0.0307410329438521
	72.4692589670561	2.859e-12	10
	0.0307410329438521	2.0492742562967	-7.53282589670562e-11
	0.0307410329438521	0.0307410329438521	0
	72.5
 74	3.90091021045577e-08	-2.19266597033733e-19	-0.0125967019329464
	72.4874032980671	2.859e-12	10
	0.0125967019329464	0.840840064171462	-7.53464032980671e-11
	0.0125967019329464	0.0125967019329464	0
	72.5
 75	3.91085298460829e-08	3.87275335826533e-19	-0.00174666756803937
	72.498253332432	2.859e-12	10
	0.00174666756803937	0.116683709549206	-7.5357253332432e-11
	0.00174666756803937	0.00174666756803937	0
	72.5
 76	3.92427766690066e-08	6.21952986544746e-20	1.62735447174188e-05
	72.5000162735447	2.859e-12	10.0000162735447
	1.62735447174188e-05	0.00108727125928961	-7.53590162735447e-11
	-1.62735447174188e-05	-1.62735447174188e-05	0
	72.5
 77	3.94316603334582e-08	-1.89446207171142e-20	-3.201307084833e-06
	72.4999967986929	2.859e-12	10
	3.201307084833e-06	0.000213886052987625	-7.53589967986929e-11
	3.201307084833e-06	3.201307084833e-06	0
	72.5
 78	3.9733264346231e-08	7.63424972628154e-19	5.09150498270022e-06
	72.500005091505	2.859e-12	10.000005091505
	5.09150498270022e-06	0.00034017435175736	-7.5359005091505e-11
	-5.09150498270022e-06	-5.09150498270022e-06	0
	72.5
 79	4.03364723717765e-08	4.88508788649663e-19	-3.26468294313575e-06
	72.4999967353171	2.859e-12	10
	3.26468294313575e-06	0.00021812032624048	-7.5358996735317e-11
	3.26468294313575e-06	3.26468294313575e-06	0
	72.5
 80	4.15428884228677e-08	-4.81051158076192e-19	2.62353766961496e-06
	72.5000026235377	2.859e-12	10.0000026235377
	2.62353766961496e-06	0.000175284138709799	-7.53590026235377e-11
	-2.62353766961496e-06	-2.62353766961496e-06	0
	72.5
 81	4.395572052505e-08	2.37727323338619e-19	-2.35117967518195e-06
	72.4999976488203	2.859e-12	10
	2.35117967518195e-06	0.000157087264172137	-7.53589976488203e-11
	2.35117967518195e-06	2.35117967518196e-06	0
	72.5
 82	4.87813847294145e-08	1.63813453796674e-19	2.2268062051451e-06
	72.5000022268062	2.859e-12	10.0000022268062
	2.2268062051451e-06	0.000148777660402202	-7.53590022268062e-11
	-2.2268062051451e-06	-2.2268062051451e-06	0
	72.5
 83	5.75919389525905e-08	3.437319954839e-20	6.71769587476544e-08
	72.500000067177	2.859e-12	10.000000067177
	6.71769587476544e-08	4.48823483607992e-06	-7.53572237103376e-11
	-6.71769587476544e-08	-6.71769587476612e-08	0
	72.5
 84	6.425e-08	-5.87207501211502e-20	-6.45658795521568e-08
	72.4999999354341	2.859e-12	10
	6.45658795521568e-08	4.313783065652e-06	-7.53589999354341e-11
	6.45658795521568e-08	6.45658795521568e-08	0
	72.5
 85	6.44716059773903e-08	-6.18192761873339e-20	0.0487365713309316
	72.5487365713309	2.859e-12	8.94070668437947
	0.0487365713309316	2.74211834202964	-7.54077365713309e-11
	-0.0487365713309316	-0.0487365713309316	0
	72.5
 86	6.47583820027915e-08	-6.58290190666846e-20	0.0842383688983015
	72.5842383688983	2.859e-12	7.54232835494072
	0.0842383688983015	3.57843772306742	-7.54432383688983e-11
	-0.0842383688983015	-0.0842383688983015	0
	72.5
 87	6.5331934053594e-08	7.93513233163018e-19	0.167862037602384
	72.6678620376024	2.859e-12	4.75819176963257
	0.167862037602384	2.51339302996453	-7.55268620376024e-11
	-0.167862037602384	-0.167862037602384	0
	72.5
 88	6.58265786785918e-08	7.28675779897028e-19	0.383336885179864
	72.8833368851799	2.859e-12	2.50044349222077
	0.383336885179864	0	-7.57423368851799e-11
	-0.383336885179864	-0.383336885179864	0
	72.5
 89	6.59324340089439e-08	-1.11688285702288e-18	0.428287328588181
	72.9282873285882	2.859e-12	2.01611728386882
	0.428287328588181	0	-7.57872873285882e-11
	-0.428287328588181	-0.428287328588181	0
	72.5
 90	6.60912170044719e-08	8.78174196009777e-18	0.492662105586415
	72.9926621055864	2.859e-12	1.28657708322673
	0.492662105586415	0	-7.58516621055864e-11
	-0.492662105586415	-0.492662105586415	0
	72.5
 91	6.625e-08	9.20976060658913e-19	0.553707155502576
	73.0537071555026	2.859e-12	0.553707155502576
	0.553707155502576	0	-7.59127071555026e-11
	-0.553707155502576	-0.553707155502576	0
	72.5
 92	6.62904232657227e-08	6.54491361415449e-19	0.5536266119467
	73.0536266119467	2.859e-12	0.5536266119467
	0.5536266119467	0	-7.59126266119467e-11
	-0.5536266119467	-0.5536266119467	0
	72.5
 93	6.63603880533878e-08	1.22320871214357e-19	0.553483536112305
	73.0534835361123	2.859e-12	0.553483536112305
	0.553483536112305	0	-7.59124835361123e-11
	-0.553483536112305	-0.553483536112305	0
	72.5
 94	6.64240088307775e-08	-5.9752635796355e-21	0.553355206885835
	73.0533552068858	2.859e-12	0.553355206885835
	0.553355206885835	0	-7.59123552068858e-11
	-0.553355206885835	-0.553355206885835	0
	72.5
 95	6.65512503855568e-08	2.17910009751532e-20	0.553100402693966
	73.053100402694	2.859e-12	0.553100402693966
	0.553100402693966	0	-7.5912100402694e-11
	-0.553100402693966	-0.553100402693966	0
	72.5
 96	6.68057334951155e-08	1.1242029316034e-22	0.552598036144913
	73.0525980361449	2.859e-12	0.552598036144913
	0.552598036144913	0	-7.59115980361449e-11
	-0.552598036144913	-0.552598036144913	0
	72.5
 97	6.73146997142329e-08	2.76525820682017e-22	0.551620950170477
	73.0516209501705	2.859e-12	0.551620950170477
	0.551620950170477	0	-7.59106209501705e-11
	-0.551620950170477	-0.551620950170477	0
	72.5
 98	6.83326321524678e-08	1.20594785689296e-20	0.549767953916461
	73.0497679539165	2.859e-12	0.549767953916461
	0.549767953916461	0	-7.59087679539165e-11
	-0.549767953916461	-0.549767953916461	0
	72.5
 99	7.03684970289375e-08	-2.69758664103091e-20	0.54640573319871
	73.0464057331987	2.859e-12	0.54640573319871
	0.54640573319871	0	-7.59054057331987e-11
	-0.54640573319871	-0.54640573319871	0
	72.5
 100	7.375e-08	1.57412965443791e-19	0.541610583893283
	73.0416105838933	2.859e-12	0.541610583893283
	0.541610583893283	0	-7.59006105838933e-11
	-0.541610583893283	-0.541610583893283	0
	72.5
 101	7.378125e-08	1.59116986124758e-19	1.51800158272687
	72.7680015827268	2.859e-12	0.268001582726776
	0.268001582726776	0	16.7583199999238
	-0.268001582726776	-0.268001582726776	0
	72.5
 102	7.38200970948931e-08	1.61235266223743e-19	2.65406330762351
	72.3501795119002	2.859e-12	0
	0.149820488099787	2.859e-12	16.7583199999256
	0.149820488099787	0.149820488099787	0
	72.5
 103	7.38718286735178e-08	1.64056119978484e-19	3.93415536780778
	71.5610084270941	3.10043648318173	0
	0.938991572905891	2.859e-12	13.6587850160978
	0.938991572905891	0.938991572905891	0
	72.5
 104	7.39235504770818e-08	-4.99639937848629e-20	4.92916990268101
	70.4871508194106	15.6491532267788	0
	2.01284918058937	2.859e-12	1.10826964956918
	2.01284918058937	2.01284918058937	0
	72.5
 105	7.40222234295123e-08	-1.05964888000078e-18	5.97389441526447
	67.5849572347706	39.1958807675212	0
	4.91504276522943	2.859e-12	-22.4169994021883
	4.91504276522943	4.91504276522943	0
	72.5
 106	7.41264771495382e-08	-2.98377881457394e-18	6.19353304321692
	63.6344470616868	45.4977876702946	0
	8.8655529383132	2.859e-12	-28.7857639549472
	8.8655529383132	8.8655529383132	0
	72.5
 107	7.41994709075969e-08	3.48893045151411e-19	6.13594539594255
	60.6571090920663	43.800055515972	0
	11.8428909079337	2.859e-12	-26.9947318374952
	11.8428909079337	11.8428909079337	0
	72.5
 108	7.426702092892e-08	-7.1841834529824e-20	6.05809471889555
	57.8772575620934	41.5562681417129	0
	14.6227424379066	2.859e-12	-24.8460737178305
	14.6227424379066	14.6227424379066	0
	72.5
 109	7.43525238980241e-08	-2.31446663646102e-19	5.96479859578191
	54.3638426748183	38.9450276633658	0
	18.1361573251817	2.859e-12	-22.1386170525391
	18.1361573251817	18.1361573251817	0
	72.5
 110	7.45013280774133e-08	1.1150672706232e-16	5.83747381043474
	48.2843507139013	35.5180802686688	0
	24.2156492860987	2.859e-12	-18.8056907398059
	24.2156492860987	24.2156492860987	0
	72.5
 111	7.47989364361918e-08	9.56848944177963e-17	5.68093773594968
	36.2234802882768	31.5211667184727	0
	36.2765197117232	2.859e-12	-14.7108124184506
	36.2765197117232	36.2765197117232	0
	72.5
 112	7.53570110104665e-08	-1.69558735066406e-17	5.53925560852505
	13.7588151898659	28.1091614637627	0
	58.7411848101341	2.859e-12	-11.3921256591195
	58.7411848101341	58.7411848101341	0
	72.5
 113	7.54552582578499e-08	7.52151337649127e-18	5.52857981790656
	9.81824950391206	27.8599819809319	0
	62.6817504960879	2.859e-12	-11.0601884013541
	62.6817504960879	62.6817504960879	0
	72.5
 114	7.56026291289249e-08	1.35984831539355e-17	5.50862314341225
	3.90345798641518	27.3971562049657	0
	68.5965420135848	2.859e-12	-10.6796145849069
	68.5965420135848	68.5965420135848	0
	72.5
 115	7.575e-08	-1.70914797253238e-17	7.5
	0.370009856919935	15.0509221520705	0
	72.8700098569199	2.859e-12	51.8824014361803
	72.8700098569199	72.8700098569199	0
	72.5
 116	7.57576229912788e-08	9.07660904390706e-18	7.5
	0.324570042240396	13.2743412415565	0
	72.8245700422404	2.859e-12	12.3342048454407
	72.8245700422404	72.8245700422404	0
	72.5
 117	7.57728689738363e-08	-1.52033828267644e-18	7.5
	0.244650705210432	10.1009397864385	0
	72.7446507052104	2.859e-12	9.37844876202283
	72.7446507052104	72.7446507052104	0
	72.5
 118	7.58033609389513e-08	5.86201749915225e-17	7.5
	0.136688823977295	5.71531823753458	0
	72.6366888239773	2.859e-12	5.30618885221162
	72.6366888239773	72.6366888239773	0
	72.5
 119	7.58643448691813e-08	1.16902521610998e-18	7.5
	0.0373133892810671	1.57821711792534	0
	72.5373133892811	2.859e-12	1.46161004335872
	72.5373133892811	72.5373133892811	0
	72.5
 120	7.58904606740888e-08	1.55417405159504e-19	7.5
	0.0225454147767863	0.955207326780763	0
	72.5225454147768	2.859e-12	0.888684401404126
	72.5225454147768	72.5225454147768	0
	72.5
 121	7.59426922839036e-08	-1.99967928953288e-19	7.5
	0.00763515477490273	0.324041371643978	0
	72.5076351547749	2.859e-12	0.298011265495983
	72.5076351547749	72.5076351547749	0
	72.5
 122	7.60471555035334e-08	1.38731257049133e-19	7.5
	4.20310511657362e-05	0.00178538079791884	0
	72.5000420310512	2.859e-12	0.00419906945418242
	72.5000420310512	72.5000420310512	0
	72.5
 123	7.62560819427929e-08	1.54456209401238e-18	7.50000866443727
	8.66443727431943e-06	0.000368047180660962	0
	72.4999913355627	2.859e-12	-0.0031817976426861
	72.4999913355627	72.4999913355627	0
	72.5
 124	7.66397721349854e-08	-2.82864079609819e-19	7.5
	7.41003422888298e-06	0.000314762182584977	0
	72.5000074100342	2.859e-12	0.00300949188831865
	72.5000074100342	72.5000074100342	0
	72.5
 125	7.74071525193703e-08	-2.49528738451939e-19	7.50000564085875
	5.64085874543707e-06	0.00023961180414499	0
	72.4999943591413	2.859e-12	-0.00293878639734563
	72.4999943591413	72.4999943591413	0
	72.5
 126	7.894191328814e-08	-1.04261858631834e-18	7.5
	4.91001051727835e-06	0.00020856665826754	0
	72.5000049100105	2.859e-12	0.00291020168850141
	72.5000049100105	72.5000049100105	0
	72.5
 127	8.20114348256795e-08	3.69176313901919e-21	7.50000458712151
	4.58712150930296e-06	0.000194851241733305	0
	72.4999954128785	2.859e-12	-0.00289733761520317
	72.4999954128785	72.4999954128785	0
	72.5
 128	8.81504779007585e-08	-3.84153427011636e-19	7.5
	4.42954289781028e-06	0.000188157440565336	0
	72.5000044295429	2.859e-12	0.00289123051493649
	72.5000044295429	72.5000044295429	0
	72.5
 129	9.46377389503792e-08	-2.68031205032547e-19	7.50000428813348
	4.28813348207768e-06	0.000182150855223386	0
	72.4999957118665	2.859e-12	-0.00288564327899157
	72.4999957118665	72.4999957118665	0
	72.5
 130	1.01125e-07	-4.51176206730691e-20	7.5000000868235
	8.68235048301358e-08	3.68808016897154e-06	0
	72.4999999131765	2.859e-12	-3.41649355159804e-06
	72.4999999131765	72.4999999131765	0
	72.5
 131	1.011875e-07	-4.29700118569751e-20	5.96262440030755
	0.962624400307874	21.9753340420987	0
	71.5373755996921	2.859e-12	-53.7041145137094
	71.5373755996921	71.5373755996921	0
	72.5
 132	1.0121800749241e-07	-4.19217213024541e-20	5.24019148874608
	1.46049118516379	19.5319915701555	0
	71.0395088148362	2.859e-12	-46.4256353648077
	71.0395088148362	71.0395088148362	0
	72.5
 133	1.01279022477231e-07	-3.98251401934121e-20	4.13444184344092
	2.79534093269342	4.85169518749463	0
	69.7046590673066	2.859e-12	-14.6979203413283
	69.7046590673066	69.7046590673066	0
	72.5
 134	1.0135875133038e-07	-3.70855179867109e-20	3.04336801337334
	4.89342122856701	2.859e-12	0
	67.606578771433	2.859e-12	-23.670414846177
	67.606578771433	67.606578771433	0
	72.5
 135	1.01457129205774e-07	-3.37050829066255e-20	1.52424195344994
	7.30941018441534	2.859e-12	0
	65.1905898155847	2.859e-12	-9.84622515384086
	65.1905898155847	65.1905898155847	0
	72.5
 136	1.01553827010599e-07	-3.03823779764182e-20	0.0243357085268059
	9.67741613247188	2.859e-12	0
	62.8225838675281	2.859e-12	-23.6704148461819
	62.8225838675281	62.8225838675281	0
	72.5
 137	1.01717187956346e-07	-2.47690114597434e-20	-2.52501451316758
	13.6625037406684	2.859e-12	0
	58.8374962593316	2.859e-12	-9.84622515384716
	58.8374962593316	58.8374962593316	0
	72.5
 138	1.0204390984784e-07	-1.35422784263957e-20	-7.68787123198936
	21.5685226816286	2.859e-12	0
	50.9314773183714	2.859e-12	-23.6704148461938
	50.9314773183714	50.9314773183714	0
	72.5
 139	1.0258445492392e-07	5.03179150775148e-21	-16.4589751244081
	34.419221832401	2.859e-12	0
	38.080778167599	2.859e-12	-9.84622515386792
	38.080778167599	38.080778167599	0
	72.5
 140	1.03125e-07	2.36058614418921e-20	-25.6252677801918
	46.8747322198082	2.859e-12	0
	25.6252677801918	2.859e-12	-23.6704148462186
	25.6252677801918	25.6252677801918	0
	72.5
 141	1.03130618295026e-07	2.37989158407629e-20	-25.6252677801894
	46.8747322198106	2.859e-12	0
	25.6252677801894	2.859e-12	-4.97337322198106e-11
	25.6252677801894	25.6252677801894	0
	72.5
 142	1.03141854885078e-07	2.41850246385045e-20	-25.6252676485362
	46.8747323514638	2.859e-12	0
	25.6252676485362	2.859e-12	-4.97308860758494e-11
	25.6252676485362	25.6252676485362	0
	72.5
 143	1.03164328065183e-07	-2.14781207814985e-21	-25.6252676485363
	46.8747323514637	2.859e-12	0
	25.6252676485363	2.859e-12	-4.9737991503207e-11
	25.6252676485363	25.6252676485363	0
	72.5
 144	1.03209274425391e-07	-7.37964046521773e-21	-25.6252676485367
	46.8747323514633	2.859e-12	0
	25.6252676485367	2.859e-12	-4.97337323514633e-11
	25.6252676485367	25.6252676485367	0
	72.5
 145	1.03299167145809e-07	-6.9038714419952e-29	-25.6252676485374
	46.8747323514626	2.859e-12	0
	25.6252676485374	2.859e-12	-4.97337323514626e-11
	25.6252676485374	25.6252676485374	0
	72.5
 146	1.03478952586643e-07	2.49164393956679e-28	-25.6252676485389
	46.8747323514611	2.859e-12	0
	25.6252676485389	2.859e-12	-4.97337323514611e-11
	25.6252676485389	25.6252676485389	0
	72.5
 147	1.03838523468313e-07	2.04870797834192e-30	-25.6252676485418
	46.8747323514582	2.859e-12	0
	25.6252676485418	2.859e-12	-4.97337323514582e-11
	25.6252676485418	25.6252676485418	0
	72.5
 148	1.04557665231652e-07	1.26975598268478e-29	-25.6252676485476
	46.8747323514524	2.859e-12	0
	25.6252676485476	2.859e-12	-4.97337323514524e-11
	25.6252676485476	25.6252676485476	0
	72.5
 149	1.0599594875833e-07	8.78869241171949e-30	-25.6252676485592
	46.8747323514408	2.859e-12	0
	25.6252676485592	2.859e-12	-4.97337323514408e-11
	25.6252676485592	25.6252676485592	0
	72.5
 150	1.08310474379165e-07	5.70406046796528e-31	-25.6252676485779
	46.8747323514221	2.859e-12	0
	25.6252676485779	2.859e-12	-4.97337323514221e-11
	25.6252676485779	25.6252676485779	0
	72.5
 151	1.10625e-07	-5.59753070888461e-31	-25.6252676485966
	46.8747323514034	2.859e-12	6.61744490042422e-14
	25.6252676485966	2.859e-12	-4.97337323514034e-11
	25.6252676485966	25.6252676485966	0
	72.5
 152	1.10763958902282e-07	-6.27605277398575e-31	-25.7767383020883
	46.7232616979117	2.859e-12	0.694794511411522
	25.7767383020883	2.859e-12	-4.95822616979117e-11
	25.7767383020883	25.7767383020883	0
	72.5
 153	1.10974052480323e-07	-7.30191816364763e-31	-26.0059960934752
	46.4940039065248	2.859e-12	1.74526240161628