Title: // Class-D RF Power Amplifier - 300W, 13.56 MHz
Date: 9:36:34 PM, Sat Jun 27, 2026
Plotname: Transient Analysis `tran': time = (0 s -> 1 us)
Flags: real
No. Variables:       13
No. Points:     1653
Variables:	0	time	s
		1	L1:i	A plot=0 grid=0
		2	M1:vgs	V plot=0 grid=0
		3	M1:vds	V plot=0 grid=0
		4	M1:id	A plot=0 grid=0
		5	M2:vgs	V plot=0 grid=0
		6	M2:vds	V plot=0 grid=0
		7	M2:id	A plot=0 grid=0
		8	Vdd:i	A plot=0 grid=0
		9	mid	V plot=0 grid=0
		10	lc_out	V plot=0 grid=0
		11	rload	V plot=0 grid=0
		12	vdd	V plot=0 grid=0
Values:
 0	0	0	0
	39.109	2.859e-12	0
	33.391	2.859e-12	-4.1968e-11
	33.391	33.391	0
	72.5
 1	2.5e-10	-0.000360801561223423	1.25
	39.5430774411889	2.859e-12	0
	32.9569225588111	2.859e-12	1.36734913353513
	32.9569225588111	33.3898880402948	-0.000920043981119734
	72.5
 2	4.61987840448176e-10	-0.000924726195928019	2.30993920224088
	39.9100286333354	2.859e-12	0
	32.5899713666646	2.859e-12	1.36957322698431
	32.5899713666646	33.3880329458608	-0.00235805179961642
	72.5
 3	8.23200618355665e-10	-0.00183979220179216	4.11600309177832
	39.8373182844793	4.67415223260321	0
	32.6626817155207	2.859e-12	-1.6854771057291
	32.6626817155207	33.3846372090671	-0.00469147011457
	72.5
 4	9.89145555707829e-10	-0.00192659238945456	4.94572777853915
	38.7081709281165	15.9394916487779	0
	33.7918290718835	2.859e-12	-9.03711343553318
	33.7918290718835	33.3837509617215	-0.00491281059310914
	72.5
 5	1.17625720252002e-09	-0.000490211269617058	5.88128601260008
	34.9152100961795	36.6794787918974	0
	37.5847899038205	2.859e-12	-22.4067893426362
	37.5847899038205	33.3869326568615	-0.0012500387375235
	72.5
 6	1.31227004053595e-09	0.0025868458105585	6.56135020267974
	29.7287832768693	57.1028679079292	0
	42.7712167231307	2.859e-12	-35.2346551282456
	42.7712167231307	33.3950825239204	0.00659645681692389
	72.5
 7	1.45539205282083e-09	0.00907986836412048	7.27696026410415
	21.2423753713531	83.4545630077817	0
	51.2576246286469	2.859e-12	-51.4490357269064
	51.2576246286469	33.4134160756974	0.023153664328507
	72.5
 8	1.59622876242137e-09	0.0203025102278693	7.98114381210686
	9.0861861583498	114.251340818726	0
	63.4138138416502	2.859e-12	-69.7433501895994
	63.4138138416502	33.446436065132	0.0517714010810676
	72.5
 9	1.63347577715494e-09	0.0242669163083042	8.1673788857747
	5.14729748403333	123.203205370611	0
	67.3527025159667	2.859e-12	-74.9116195735355
	67.3527025159667	33.458311341155	0.0618806365861756
	72.5
 10	1.65209928452172e-09	0.0264243260523211	8.26049642260861
	3.42304878153904	113.716575964379	0
	69.076951218461	2.859e-12	-50.7249218237631
	69.076951218461	33.4648170431571	0.0673820314334188
	72.5
 11	1.68934629925529e-09	0.0309759015343383	8.44673149627643
	1.31301870893482	59.4834266742206	0
	71.1869812910652	2.859e-12	-25.7750438651924
	71.1869812910652	33.478698015022	0.0789885489125627
	72.5
 12	1.72327416732891e-09	0.0352869692139068	8.61637083664456
	0.476128835528783	24.2954441784045	0
	72.0238711644712	2.859e-12	-7.44693315665136
	72.0238711644712	33.4920828949846	0.0899817714954624
	72.5
 13	1.7340516628806e-09	0.0366733152960428	8.67025831440299
	0.354575188314939	18.488665776706	0
	72.1454248116851	2.859e-12	-7.7661066927546
	72.1454248116851	33.4964431324368	0.0935169540049092
	72.5
 14	1.75560665398396e-09	0.0394553200216989	8.77803326991983
	0.203664694705694	10.9829554663843	0
	72.2963353052943	2.859e-12	-1.70564629355625
	72.2963353052943	33.5052829381649	0.100611066055332
	72.5
 15	1.79658190085077e-09	0.0447600014787025	8.98290950425384
	0.0913486513031359	5.15822840156053	0
	72.4086513486969	2.859e-12	-2.05584221668771
	72.4086513486969	33.5224808796977	0.114138003770691
	72.5
 16	1.85492921427363e-09	0.05232307774726	9.27464607136815
	0.0644041665084529	3.82807377391013	0
	72.4355958334915	2.859e-12	1.33934663135992
	72.4355958334915	33.5477928272162	0.133423848255513
	72.5
 17	1.93241958791222e-09	0.0623635987852612	9.66209793956108
	0.0610829967599642	3.86202119798372	0
	72.43891700324	2.859e-12	-1.51149724291531
	72.43891700324	33.5828505318375	0.159027176902416
	72.5
 18	2e-09	0.0711132446715436	10
	0.0578851918061076	3.85112486388734	0
	72.4421148081939	2.859e-12	1.31453074688437
	72.4421148081939	33.6147583204273	0.181338773912436
	72.5
 19	2.13516082417557e-09	0.0885960923740928	10
	0.00975112917652154	0.651030819379285	0
	72.4902488708235	2.859e-12	-0.32740630704644
	72.4902488708235	33.6848177115667	0.225920035553937
	72.5
 20	2.16861161841723e-09	0.0929223124057718	10
	0.00279009527993423	0.186374285094305	0
	72.4972099047201	2.859e-12	-0.133184857270576
	72.4972099047201	33.7023090777638	0.236951896634718
	72.5
 21	2.23551320690055e-09	0.101569736318483	10
	0.00122355641221361	0.081741107813167	0
	72.4987764435878	2.859e-12	-0.0927097611927317
	72.4987764435878	33.7382023778976	0.259002827612131
	72.5
 22	2.3693163838672e-09	0.11883991319158	10
	0.00185416627932966	0.123864042121821	0
	72.4981458337207	2.859e-12	-0.121379425325191
	72.4981458337207	33.8136152771565	0.30304177863853
	72.5
 23	2.6369227378005e-09	0.153272276981551	10
	0.00214833251583002	0.143512180844275	0
	72.4978516674842	2.859e-12	-0.149260260292096
	72.4978516674842	33.9788847740476	0.390844306302955
	72.5
 24	3.17213544566709e-09	0.221641390945742	10
	0.00335631445619811	0.224187649148593	0
	72.4966436855438	2.859e-12	-0.222626694952537
	72.4966436855438	34.3666925672388	0.565185546911641
	72.5
 25	4.24256086140027e-09	0.355894610009424	10
	0.00520834616381194	0.347848609828193	0
	72.4947916538362	2.859e-12	-0.352589042234876
	72.4947916538362	35.3667076523653	0.90753125552403
	72.5
 26	6.38341169286664e-09	0.610626297557803	10
	0.00917806280504863	0.612795836082063	0
	72.490821937195	2.859e-12	-0.611445164278433
	72.490821937195	38.2175256775232	1.5570970587724
	72.5
 27	1.00794650045633e-08	0.988094448877637	10
	0.0147015730449453	0.981191312717187	0
	72.4852984269551	2.859e-12	-0.985271418863354
	72.4852984269551	45.4661940477939	2.51964084463797
	72.5
 28	1.36995531619711e-08	1.25764328813067	10
	0.0188982145152039	1.26089155647026	0
	72.4811017854848	2.859e-12	-1.25891162483758
	72.4811017854848	54.802233573408	3.2069903847332
	72.5
 29	1.7458935109661e-08	1.40973119110251	10
	0.0210564661840635	1.40466923959734	0
	72.4789435338159	2.859e-12	-1.40769292495034
	72.4789435338159	65.8578018376436	3.59481453731141
	72.5
 30	2.11298064787177e-08	1.42269792978987	10
	0.0213987204090245	1.42746525124749	0
	72.478601279591	2.859e-12	-1.42461115684449
	72.478601279591	76.9520191114731	3.62787972096418
	72.5
 31	2.42524032393588e-08	1.32965164668139	10
	0.0198816991644577	1.32641462874594	0
	72.4801183008355	2.859e-12	-1.32838996142406
	72.4801183008355	85.8578126551223	3.39061169903755
	72.5
 32	2.7375e-08	1.14981300474014	10
	0.017318640705497	1.15563530544364	0
	72.4826813592945	2.859e-12	-1.15217548596817
	72.4826813592945	93.6357861273776	2.93202316208736
	72.5
 33	2.75e-08	1.14089807977221	9.40707246682965
	0.0320724668296464	1.95272079521212	0
	72.5320724668296	2.859e-12	-1.40583606335099
	72.5320724668296	93.9164834090743	2.90929010341913
	72.5
 34	2.775e-08	1.12284783383568	8.18397351905701
	0.0589735190569911	2.88076467682823	0
	72.558973519057	2.859e-12	-1.00219356168278
	72.558973519057	94.4725153653425	2.86326197628098
	72.5
 35	2.825e-08	1.08543163688162	5.71290909897073
	0.0879090989707123	2.16740056678784	0
	72.5879090989707	2.859e-12	-1.28368132942885
	72.5879090989707	95.5517208028529	2.76785067404813
	72.5
 36	2.84003985483951e-08	1.07384483867285	5.0016919308766
	0.128684672852103	2.25633087257365	0
	72.6286846728521	2.859e-12	-1.23907421055671
	72.6286846728521	95.8676553690239	2.73830433861578
	72.5
 37	2.87011956451853e-08	1.05031454415883	3.6807307293826
	0.311708955309129	1.17988222494117	0
	72.8117089553091	2.859e-12	-1.70060380446534
	72.8117089553091	96.4873775600083	2.67830208760501
	72.5
 38	2.90380978225927e-08	1.02353106230206	2.34370716794309
	0.659196280906357	2.859e-12	0
	73.1591962809064	2.859e-12	-1.75471341662724
	73.1591962809064	97.1623595753409	2.61000420887025
	72.5
 39	2.9375e-08	0.996384958193979	0.99507457266678
	0.99507457266678	2.859e-12	0
	73.4950745726668	2.859e-12	-1.59949710941092
	73.4950745726668	97.8170881859132	2.54078164339465
	72.5
 40	2.96515879814768e-08	0.973250103563051	0.747446418560131
	0.747446418560131	2.859e-12	0
	73.2474464185601	2.859e-12	-0.375091483132691
	73.2474464185601	98.33083745898	2.48178776408578
	72.5
 41	2.99712550373204e-08	0.946051147801748	0.465605260476522
	0.465605260476522	2.859e-12	0
	72.9656052604765	2.859e-12	-0.363674715952033
	72.9656052604765	98.9141794625343	2.41243042689446
	72.5
 42	3.02901143123343e-08	0.918018347322285	0.192684804078922
	0.192684804078922	2.859e-12	0
	72.6926848040789	2.859e-12	-0.353520721234209
	72.6926848040789	99.4750105530039	2.34094678567183
	72.5
 43	3.09278328623621e-08	0.859391917193563	0
	0.327456048039949	2.859e-12	0
	72.1725439519601	2.859e-12	-0.329906697066221
	72.1725439519601	100.531350918613	2.19144938884358
	72.5
 44	3.22032699624176e-08	0.732906034190985	0
	1.25832153675661	2.859e-12	0
	71.2416784632434	2.859e-12	-0.281638228841041
	71.2416784632434	102.369318173912	1.86891038718701
	72.5
 45	3.47541441625286e-08	0.451684583549552	0
	2.64076845270426	2.859e-12	0
	69.8592315472957	2.859e-12	-0.172470558647306
	69.8592315472957	104.866822245509	1.15179568805136
	72.5
 46	3.6875e-08	0.199034302126273	0
	3.27110887613698	2.859e-12	0
	69.228891123863	2.859e-12	-0.076566795487723
	69.228891123863	105.690735248346	0.507537470421997
	72.5
 47	3.70090927624898e-08	0.182835685365087	0
	3.03705133941028	2.859e-12	0.670463812449218
	69.4629486605897	2.859e-12	0.731286876714032
	69.4629486605897	105.701592482269	0.466230997680972
	72.5
 48	3.72142524771057e-08	0.158171540389638	0
	2.67636467283675	2.859e-12	1.69626238552844
	69.8236353271632	2.859e-12	0.741834342391672
	69.8236353271632	105.713125449941	0.403337427993577
	72.5
 49	3.75129182712707e-08	0.122705563706476	0
	2.14459294896329	2.859e-12	3.18959135635374
	70.3554070510367	0.0139777561247185	0.750067457155423
	70.3554070510367	105.711930170418	0.312899187451513
	72.5
 50	3.76413118811919e-08	0.107594732957592	0
	2.05119277856211	2.859e-12	3.83155940595933
	70.4488072214379	2.35459608166217	-0.140523904102509
	70.4488072214379	105.70485402696	0.27436656904186
	72.5
 51	3.78177412771648e-08	0.0866166194973385	0
	2.89643822151797	2.859e-12	4.71370638582404
	69.603561778482	12.114355886234	-3.87379965391898
	69.603561778482	105.687811530833	0.220872379718213
	72.5
 52	3.80038831475056e-08	0.0632178551410545	0
	6.17879359655485	2.859e-12	5.64441573752807
	66.3212064034451	30.6229478538355	-10.9016943356738
	66.3212064034451	105.657815393799	0.161205530609689
	72.5
 53	3.81691555234168e-08	0.0398992307860284	0
	12.2011286069441	2.859e-12	6.47077761708387
	60.2988713930559	54.1229820122889	-19.6309995567516
	60.2988713930559	105.616483120618	0.101743038504373
	72.5
 54	3.83308067492999e-08	0.012912036494007	0
	21.7933387587699	2.859e-12	7.27903374649939
	50.7066612412301	83.5381595067968	-30.0900360721149
	50.7066612412301	105.556747696552	0.0329256930597172
	72.5
 55	3.84865533121055e-08	-0.0189786729682404	0
	35.0317196551827	2.859e-12	8.05776656052752
	37.4682803448173	117.893533265574	-41.1324099798868
	37.4682803448173	105.474421219574	-0.0483956160690126
	72.5
 56	3.86455679942807e-08	-0.0596320395703584	0
	52.5319542340537	2.859e-12	8.85283997140363
	19.9680457659463	159.059653472906	-51.0837700408098
	19.9680457659463	105.357456988494	-0.152061700904414
	72.5
 57	3.87029259957105e-08	-0.0766191477404111	0
	59.5017327358733	2.859e-12	9.13962997855272
	12.9982672641267	175.418662862672	-50.7344380130945
	12.9982672641267	105.305825930962	-0.195378826738048
	72.5
 58	3.87349665332929e-08	-0.0866838010114055	0
	63.3929703064608	2.859e-12	9.29983266646438
	9.10702969353918	184.905419968256	-51.028218491094
	9.10702969353918	105.274594773347	-0.221043692579084
	72.5
 59	3.87558674493607e-08	-0.0934691005719821	0
	65.8657011029873	2.859e-12	9.40433724680364
	6.63429889701269	191.228522495881	-48.1033550427605
	6.63429889701269	105.253286556622	-0.238346206458554
	72.5
 60	3.87696078644298e-08	-0.0980193319854584	0
	67.3381022450081	2.859e-12	9.47303932214924
	5.16189775499187	188.722376185784	-41.6863979678463
	5.16189775499187	105.23888439147	-0.249949296562919
	72.5
 61	3.87878786419933e-08	-0.10416035228206	0
	68.8727006790209	2.859e-12	9.56439320996635
	3.62729932097906	162.932950784084	-28.69180990937
	3.62729932097906	105.219295023715	-0.265608898319253
	72.5
 62	3.88025556712398e-08	-0.10915297316959	0
	69.8062817173155	2.859e-12	9.63777835619916
	2.69371828268446	135.161186142315	-24.6066114635378
	2.69371828268446	105.20323319586	-0.278340081582455
	72.5
 63	3.88245733368749e-08	-0.116706299188492	0
	70.6485805893074	2.859e-12	9.74786668437432
	1.8514194106926	102.471151060503	-7.44836263436138
	1.8514194106926	105.17868190181	-0.297601062930654
	72.5
 64	3.88386537043695e-08	-0.121564494302521	0
	71.0323524524278	2.859e-12	9.8182685218475
	1.46764754757221	84.9773457853778	-15.3897191545521
	1.46764754757221	105.162724418806	-0.309989460471429
	72.5
 65	3.88533236454137e-08	-0.126642381762528	0
	71.3468963258783	2.859e-12	9.89161822706831
	1.15310367412166	69.3536263325974	-2.57636151850095
	1.15310367412166	105.145902209785	-0.322938073494447
	72.5
 66	3.8875e-08	-0.134167703358472	0
	71.6894939714745	2.859e-12	9.99999999999999
	0.810506028525526	50.9544922345393	-10.6670114696632
	0.810506028525526	105.120698371752	-0.342127643564104
	72.5
 67	3.88913355198449e-08	-0.139856104382918	0
	71.8669168791504	2.859e-12	10
	0.633083120849572	40.3470179775668	-4.55037533309278
	0.633083120849572	105.101332050909	-0.356633066176442
	72.5
 68	3.89126013268048e-08	-0.147267207047804	0
	72.0578078569481	2.859e-12	10
	0.442192143051881	28.5921589903802	-2.97111702583283
	0.442192143051881	105.075938091332	-0.3755313779719
	72.5
 69	3.89347199806681e-08	-0.154985619863993	0
	72.1930771861562	2.859e-12	10
	0.306922813843764	20.0476977636867	-2.15326061291501
	0.306922813843764	105.049143983696	-0.395213330653183
	72.5
 70	3.89789572883946e-08	-0.17043813163109	0
	72.3523067114894	2.859e-12	10
	0.147693288510585	9.76153914708258	-0.862767572628736
	0.147693288510585	104.994425322694	-0.434617235659279
	72.5
 71	3.90211450328776e-08	-0.185183336233814	0
	72.4243209068523	2.859e-12	10
	0.0756790931476715	5.02840637834725	-0.567549389499698
	0.0756790931476715	104.94086455349	-0.472217507396226
	72.5
 72	3.90757338099668e-08	-0.204261966171421	0
	72.4674883510044	2.859e-12	10
	0.0325116489955515	2.16702779397691	-0.0950536961729312
	0.0325116489955515	104.86959772502	-0.520868013737122
	72.5
 73	3.91405594230249e-08	-0.226907910193825	0
	72.4869289830822	2.859e-12	10
	0.0130710169178412	0.872470800469717	-0.156229954059578
	0.0130710169178412	104.782115619286	-0.578615170994253
	72.5
 74	3.92303707555718e-08	-0.258254255176697	0
	72.4946090621219	2.859e-12	10
	0.00539093787811163	0.360038529751939	0.0845768459307723
	0.00539093787811163	104.655828119821	-0.658548350700577
	72.5
 75	3.93529993239267e-08	-0.300993275614359	0
	72.4957729497313	2.859e-12	10
	0.00422705026868484	0.28233121561952	-0.092529642588871
	0.00422705026868484	104.473886464453	-0.767532852816616
	72.5
 76	3.95393706409533e-08	-0.365799022788059	0
	72.4948746765421	2.859e-12	10
	0.00512532345790863	0.342305862514841	0.0965682331915437
	0.00512532345790863	104.176428661462	-0.93278750810955
	72.5
 77	3.98526246507625e-08	-0.474276796082285	0
	72.4932377414178	2.859e-12	10
	0.00676225858218957	0.451578258222142	-0.0921896329455987
	0.00676225858218957	103.619855957854	-1.20940583000983
	72.5
 78	4.0479132670381e-08	-0.689260538849828	0
	72.4900103849863	2.859e-12	10
	0.00998961501365805	0.666941650399214	0.0965060238177577
	0.00998961501365805	102.296152231392	-1.75761437406706
	72.5
 79	4.1732148709618e-08	-1.10918776010046	0
	72.4837023734785	2.859e-12	10
	0.016297626521529	1.08758622989155	-0.0922877349720319
	0.016297626521529	98.8280138126041	-2.82842878825617
	72.5
 80	4.27552008865563e-08	-1.43943999807818	0
	72.4787334818276	2.859e-12	10
	0.02126651817244	1.41865999115036	0.00200145471601509
	0.02126651817244	95.2172739805032	-3.67057199509935
	72.5
 81	4.41131907198347e-08	-1.85707934661393	0
	72.472440872405	2.859e-12	10
	0.0275591275950384	1.83758725237884	0.00188125322709776
	0.0275591275950384	89.3899109233355	-4.73555233386551
	72.5
 82	4.59798755434922e-08	-2.38259779743926	0
	72.4645068977862	2.859e-12	10
	0.0354931022138328	2.36523822626856	0.00168014284317078
	0.0354931022138328	79.6305399566972	-6.07562438347012
	72.5
 83	4.88707095318515e-08	-3.06029806199388	0
	72.4542425230827	2.859e-12	10
	0.045757476917315	3.0469639411789	0.00129501359722447
	0.045757476917315	61.1635656166048	-7.80376005808438
	72.5
 84	5.15486154343796e-08	-3.51671239680037	0
	72.4472968871522	2.859e-12	10
	0.0527031128477517	3.50768828064174	0.000878273771633837
	0.0527031128477517	41.2628844579609	-8.96761661184093
	72.5
 85	5.39028576337403e-08	-3.76575060493665	0
	72.4434778595638	2.859e-12	10
	0.0565221404361932	3.76081546809102	0.000480984832709671
	0.0565221404361932	22.3888139272428	-9.60266404258846
	72.5
 86	5.57200499175829e-08	-3.85547431725121	0
	72.4420748602615	2.859e-12	10
	0.0579251397385359	3.85377135390109	0.000165944664086834
	0.0579251397385359	7.42679386293734	-9.83145950899058
	72.5
 87	5.70864925155541e-08	-3.86326325829747	0
	72.4419205292717	2.859e-12	10
	0.0580794707282703	3.86399540227997	-7.13075384607949e-05
	0.0580794707282703	-3.81350604927358	-9.85132130865855
	72.5
 88	5.84343224770251e-08	-3.8211872391095	0
	72.442520030734	2.859e-12	10
	0.0574799692660216	3.82427860645591	-0.000301389377773294
	0.0574799692660216	-14.7246511554992	-9.74402745972922
	72.5
 89	5.99531908175712e-08	-3.71600911379118	0
	72.4440683925707	2.859e-12	10
	0.0559316074293183	3.72168390393217	-0.000552797486789068
	0.0559316074293183	-26.6351798262573	-9.4758232401675
	72.5
 90	6.18392322958933e-08	-3.50415082945559	0
	72.4472190055112	2.859e-12	10
	0.0527809944887511	3.51285173542379	-0.000846932745609879
	0.0527809944887511	-40.5816658108646	-8.93558461511176
	72.5
 91	6.30446161479467e-08	-3.3240839172712	0
	72.4499072071378	2.859e-12	10
	0.0500927928622063	3.33459319975056	-0.00102175608061338
	0.0500927928622063	-48.8784993355753	-8.47641398904156
	72.5
 92	6.425e-08	-3.11187564839943	0
	72.453080668564	2.859e-12	10
	0.0469193314359592	3.12406585332874	-0.00118425844451648
	0.0469193314359592	-56.5903488168965	-7.93528290341855
	72.5
 93	6.43499246296886e-08	-3.0928088256981	0
	72.4865921749323	2.859e-12	9.50037685155693
	0.0134078250676778	0.829725570554187	-0.140505036008849
	0.0134078250676778	-57.199276879871	-7.88666250553014
	72.5
 94	6.43920823289414e-08	-3.08474737249977	0
	72.4974105675312	2.859e-12	9.28958835529307
	0.00258943246877478	0.155067077370664	-0.0745186588300881
	0.00258943246877478	-57.4557750213649	-7.8661057998744
	72.5
 95	6.44763977274469e-08	-3.06851962230606	0
	72.5073147671933	2.859e-12	8.87532612995864
	0.00731476719328409	0.408378177550266	-0.0239080523504913
	-0.00731476719328409	-57.9663252783476	-7.82472503688045
	72.5
 96	6.4645028524458e-08	-3.03564097175388	0
	72.5130843698074	2.859e-12	8.03794174751737
	0.0130843698074426	0.623474810309003	-0.00476074632186021
	-0.0130843698074426	-58.9775373429076	-7.74088447797239
	72.5
 97	6.48544865946e-08	-2.99402061971177	0
	72.5167703534958	2.859e-12	6.99433738049598
	0.0167703534957755	0.628456918669081	-0.0099846618529011
	-0.0167703534957755	-60.2149812755805	-7.63475258026502
	72.5
 98	6.51934192174219e-08	-2.92487722538666	0
	72.5282057039515	2.859e-12	5.31110961684179
	0.0282057039514914	0.593295461920207	-0.0182860401049131
	-0.0282057039514914	-62.1728226103223	-7.45843692473599
	72.5
 99	6.5810188669641e-08	-2.79355759280722	0
	72.5426793742618	2.859e-12	2.24173602605665
	0.042679374261753	0	-0.00137725544426155
	-0.042679374261753	-65.5900383029553	-7.1235718616584
	72.5
 100	6.625e-08	-2.69566879668721	0
	72.4690123595694	2.859e-12	0
	0.0309876404306066	2.859e-12	0.141725550169369
	0.0309876404306066	-67.9087452356207	-6.87395543155237
	72.5
 101	6.63337273265364e-08	-2.67656405814658	0
	72.4101890316369	2.859e-12	0
	0.0898109683630867	2.859e-12	0.294342418862833
	0.0898109683630867	-68.3368399670061	-6.82523834827378
	72.5
 102	6.64757896292938e-08	-2.64395381033523	0
	72.3082799138131	2.859e-12	0
	0.191720086186868	2.859e-12	0.306740899453595
	0.191720086186868	-69.0577742821704	-6.74208221635485
	72.5
 103	6.65945147880503e-08	-2.61640316832024	0
	72.2216490425759	2.859e-12	0
	0.278350957424128	2.859e-12	0.304666100091671
	0.278350957424128	-69.6519209082308	-6.6718280792166
	72.5
 104	6.68319651055633e-08	-2.56050183478512	0
	72.0451640215242	2.859e-12	0
	0.454835978475849	2.859e-12	0.318115222809235
	0.454835978475849	-70.817093504229	-6.52927967870206
	72.5
 105	6.73068657405893e-08	-2.44558259970415	0
	71.6836693499003	2.859e-12	0
	0.816330650099734	2.859e-12	0.31970698010453
	0.816330650099734	-73.0531906004456	-6.23623562924558
	72.5
 106	6.82566670106412e-08	-2.20401988137213	0
	70.9534570633483	2.859e-12	0
	1.54654293665168	2.859e-12	0.324487313428153
	1.54654293665168	-77.1352890110001	-5.62025069749892
	72.5
 107	6.95185966008125e-08	-1.86138080288036	0
	70.0297783038317	2.859e-12	0
	2.47022169616827	2.859e-12	0.288831541523944
	2.47022169616827	-81.7192715091019	-4.74652104734491
	72.5
 108	7.0949972984259e-08	-1.44724718393416	0
	68.8287220781869	2.859e-12	0
	3.67127792181314	2.859e-12	0.414256926190796
	3.67127792181314	-85.7014137190195	-3.69048031903212
	72.5
 109	7.21072697143789e-08	-1.09654802435261	0
	68.0172656135114	2.859e-12	0
	4.48273438648863	2.859e-12	0.17326080992132
	4.48273438648863	-87.9389669010707	-2.79619746209914
	72.5
 110	7.29286348571895e-08	-0.841433481922113	0
	67.5639745221473	2.859e-12	0
	4.93602547785268	2.859e-12	0.289164289706956
	4.93602547785268	-88.9818189207085	-2.14565537890139
	72.5
 111	7.375e-08	-0.58301162014692	0
	67.2247086191898	2.859e-12	0
	5.27529138081021	2.859e-12	0.0569379654415891
	5.27529138081021	-89.5675129122102	-1.48667963137465
	72.5
 112	7.38501742013558e-08	-0.551358253666967	0.500871006778812
	67.3148597079665	2.859e-12	0
	5.18514029203352	2.859e-12	1.7177516074042
	5.18514029203352	-89.6043114504991	-1.40596354685077
	72.5
 113	7.40358400198156e-08	-0.492725997576971	1.42920009907802
	67.4841779160539	2.859e-12	0
	5.0158220839461	2.859e-12	1.7076897005589
	5.0158220839461	-89.6610234070953	-1.25645129382128
	72.5
 114	7.42231909241039e-08	-0.43364144670574	2.3659546205195
	67.6600737536874	2.859e-12	0
	4.83992624631264	2.859e-12	1.69520641727502
	4.83992624631264	-89.6949916091712	-1.10578568909964
	72.5
 115	7.43738406523751e-08	-0.386200975695521	3.11920326187561
	67.8050560070486	2.859e-12	0
	4.69494399295136	2.859e-12	1.68798016122474
	4.69494399295136	-89.7054110018823	-0.984812488023579
	72.5
 116	7.44769278409914e-08	-0.353773016923584	3.63463920495711
	67.8706622294771	1.21009872690185	0
	4.6293377705229	2.859e-12	0.75823888768724
	4.6293377705229	-89.7038705990865	-0.90212119315514
	72.5
 117	7.45706496581041e-08	-0.324293507198163	4.10324829052065
	67.8106964170773	4.55327523120659	0
	4.68930358292274	2.859e-12	-1.79591099927126
	4.68930358292274	-89.6963038352058	-0.826948443355315
	72.5
 118	7.46877193936466e-08	-0.287380080051407	4.68859696823295
	67.3832126743591	11.7318210182448	0
	5.11678732564092	2.859e-12	-7.23992918541513
	5.11678732564092	-89.6783538141705	-0.732819204131087
	72.5
 119	7.47865702036797e-08	-0.256010920555106	5.1828510183985
	66.5530310200655	20.390150338562	0
	5.94696897993451	2.859e-12	-13.6553676772459
	5.94696897993451	-89.6555056921089	-0.65282784741552
	72.5
 120	7.48854260740007e-08	-0.224271479009855	5.67713037000331
	65.0916481096112	31.4269224921072	0
	7.40835189038879	2.859e-12	-21.5852419181894
	7.40835189038879	-89.6250794083055	-0.57189227147513
	72.5
 121	7.49755971246777e-08	-0.194798924309583	6.12798562338863
	63.0167696961294	43.5679339860434	0
	9.48323030387063	2.859e-12	-29.9391921205621
	9.48323030387063	-89.5901244135804	-0.496737256989436
	72.5
 122	7.50606575454419e-08	-0.166317060859878	6.55328772720947
	60.2215012360553	56.8343706047723	0
	12.2784987639447	2.859e-12	-38.7378096753391
	12.2784987639447	-89.5501729784254	-0.424108505192688
	72.5
 123	7.51466787366708e-08	-0.136573017976273	6.9833936833539
	56.3682875909619	72.0412461332606	0
	16.1317124090381	2.859e-12	-48.414808628146
	16.1317124090381	-89.5020437173625	-0.348261195839497
	72.5
 124	7.52374706257045e-08	-0.103793062189827	7.43735312852242
	50.9508427112219	90.0447004835195	0
	21.5491572887781	2.859e-12	-59.4840990508944
	21.5491572887781	-89.4416710965729	-0.264672308584058
	72.5
 125	7.53354935049826e-08	-0.066283228881483	7.92746752491297
	43.2578475196787	111.733926068699	0
	29.2421524803213	2.859e-12	-72.3439353133508
	29.2421524803213	-89.3637565192406	-0.169022233647782
	72.5
 126	7.54430527879454e-08	-0.0218029301052531	8.46526393972714
	32.2419016676375	138.223670337739	0
	40.2580983323625	2.859e-12	-87.6068737792359
	40.2580983323625	-89.2604109957651	-0.0555974717683951
	72.5
 127	7.55625401739487e-08	0.0329195576621505	9.06270086974378
	16.3515875104647	170.951917964108	0
	56.1484124895353	2.859e-12	-105.946882778939
	56.1484124895353	-89.1194555702902	0.0839448720384831
	72.5
 128	7.56562700869744e-08	0.0803147110988956	9.5313504348719
	3.36005524197287	154.218262053551	0
	69.1399447580271	2.859e-12	-85.3632122553114
	69.1399447580271	-88.9873070373643	0.204802513302184
	72.5
 129	7.56679863261026e-08	0.0865104622402859	9.58993163051291
	2.30457066711868	118.926527095872	0
	70.1954293328813	2.859e-12	-36.5187130665555
	70.1954293328813	-88.96942854895	0.220601678712729
	72.5
 130	7.5691418804359e-08	0.0989920847616766	9.70709402179494
	0.997965072312823	58.9838389747074	0
	71.5020349276872	2.859e-12	-38.7661614747017
	71.5020349276872	-88.932976172798	0.252429816142275
	72.5
 131	7.57264089078199e-08	0.117744723601334	9.88204453909928
	0.245199205746658	15.8081462832448	0
	72.2548007942533	2.859e-12	9.65225200451529
	72.2548007942533	-88.8770892380671	0.300249045183402
	72.5
 132	7.575e-08	0.130418830155666	10
	0.123233522701781	8.15958208946607	0
	72.3767664772982	2.859e-12	-16.8365274126146
	72.3767664772982	-88.8385421288297	0.332568016896947
	72.5
 133	7.57859325573978e-08	0.149729721784069	10
	0.0502160262662272	3.34276652326754	0
	72.4497839737338	2.859e-12	-1.51259358192203
	72.4497839737338	-88.7778521810875	0.381810790549376
	72.5
 134	7.57963646463685e-08	0.155336132548433	10
	0.0328989471394152	2.19278070893134	0
	72.4671010528606	2.859e-12	-1.01881961695912
	72.4671010528606	-88.7601702228572	0.396107137998503
	72.5
 135	7.58172288243099e-08	0.166548342264889	10
	0.0142243650581406	0.949375217447191	0
	72.4857756349419	2.859e-12	-0.503455574048873
	72.4857756349419	-88.724434561528	0.424698272775466
	72.5
 136	7.58589571801928e-08	0.188967232650484	10
	0.00337738134854249	0.225594482418694	0
	72.4966226186515	2.859e-12	-0.200662659503646
	72.4966226186515	-88.6514843905852	0.481866443258733
	72.5
 137	7.59424138919585e-08	0.233775205557644	10
	0.00310828358578874	0.207623985268836	0
	72.4968917164142	2.859e-12	-0.226402633606979
	72.4968917164142	-88.4996914066755	0.596126774171992
	72.5
 138	7.60888498493454e-08	0.312289514886522	10
	0.00459171476144604	0.306679571048512	0
	72.4954082852386	2.859e-12	-0.306076436441202
	72.4954082852386	-88.2144123539151	0.796338262960632
	72.5
 139	7.63762029289111e-08	0.465918095441171	10
	0.00670844795681091	0.447986584256017	0
	72.4932915520432	2.859e-12	-0.462252856310484
	72.4932915520432	-87.5847654805549	1.18809114337499
	72.5
 140	7.69509090880425e-08	0.771091410097404	10
	0.0114304527418483	0.763056864165211	0
	72.4885695472582	2.859e-12	-0.763737895326771
	72.4885695472582	-86.050278866759	1.96628309574838
	72.5
 141	7.81003214063053e-08	1.37051029551802	10
	0.0202987039302798	1.3541940537524	0
	72.4797012960697	2.859e-12	-1.36751661210921
	72.4797012960697	-81.9030549842056	3.49480125357095
	72.5
 142	8.03991460428309e-08	2.50587842324195	10
	0.0374998185326234	2.49859831420873	0
	72.4625001814674	2.859e-12	-2.49883690350632
	72.4625001814674	-69.5279323357061	6.38998997926696
	72.5
 143	8.28761585322091e-08	3.59999026199696	10
	0.0538906282614704	3.58641264496681	0
	72.4461093717385	2.859e-12	-3.59815682277561
	72.4461093717385	-50.6482524747111	9.17997516809224
	72.5
 144	8.53777198447696e-08	4.52601310679585	10
	0.0680163767521407	4.52180295253973	0
	72.4319836232479	2.859e-12	-4.52027278683483
	72.4319836232479	-26.6616860788692	11.5413334223294
	72.5
 145	8.66530817501949e-08	4.91770927697036	10
	0.0738497089350858	4.90751265221256	0
	72.4261502910649	2.859e-12	-4.91731472461694
	72.4261502910649	-12.8499206601708	12.5401586562744
	72.5
 146	8.80798172645014e-08	5.28396740828545	10
	0.079513009440106	5.28166269721455	0
	72.4204869905599	2.859e-12	-5.27903775521868
	72.4204869905599	3.56818058779622	13.4741168911279
	72.5
 147	8.92511387089217e-08	5.52508215336322	10
	0.0830892855609591	5.51777114973634	0
	72.416910714439	2.859e-12	-5.52591647800144
	72.416910714439	17.6520354700431	14.0889594910762
	72.5
 148	9.07176548525377e-08	5.74813228016175	10
	0.0865775988402078	5.74795229274836	0
	72.4134224011598	2.859e-12	-5.74410739968877
	72.4134224011598	35.8084206946665	14.6577373144125
	72.5
 149	9.24827487963583e-08	5.89770005026334	10
	0.088790776683382	5.893930460655	0
	72.4112092233166	2.859e-12	-5.90004307279128
	72.4112092233166	58.0578909735135	15.0391351281715
	72.5
 150	9.45886340567179e-08	5.90516661553827	10
	0.0890132624420943	5.90860267808277	0
	72.4109867375579	2.859e-12	-5.90268188028
	72.4109867375579	84.5189338442217	15.0581748696226
	72.5
 151	9.69736370064311e-08	5.69362445686016	10