Title: // Class-D RF Power Amplifier - 300W, 13.56 MHz
Date: 9:32:33 PM, Sat Jun 27, 2026
Plotname: Transient Analysis `tran': time = (0 s -> 1 us)
Flags: real
No. Variables:       13
No. Points:     1643
Variables:	0	time	s
		1	L1:i	A plot=0 grid=0
		2	M1:vgs	V plot=0 grid=0
		3	M1:vds	V plot=0 grid=0
		4	M1:id	A plot=0 grid=0
		5	M2:vgs	V plot=0 grid=0
		6	M2:vds	V plot=0 grid=0
		7	M2:id	A plot=0 grid=0
		8	Vdd:i	A plot=0 grid=0
		9	mid	V plot=0 grid=0
		10	lc_out	V plot=0 grid=0
		11	rload	V plot=0 grid=0
		12	vdd	V plot=0 grid=0
Values:
 0	0	0	-36.24
	36.26	1e-14	0
	36.24	1e-14	-3.627e-11
	36.24	36.24	0
	72.5
 1	3.10609717933937e-11	5.70627219127169e-05	-35.5488468776795
	35.7087142505847	1e-14	0
	36.7912857494153	1e-14	19.2983781171317
	36.7912857494153	36.2401492810549	0.000145509940877428
	72.5
 2	6.07968625113656e-11	0.000163974962917077	-34.8871776000477
	35.1809478994977	1e-14	0
	37.3190521005023	1e-14	19.2983781171318
	37.3190521005023	36.2404322816132	0.000418136155438546
	72.5
 3	1.20268643947309e-10	0.000482338273163838	-33.5638354923995
	34.1254187497081	1e-14	0
	38.3745812502919	1e-14	19.2983781171333
	38.3745812502919	36.2412849989049	0.00122996259656779
	72.5
 4	2.39212206819197e-10	0.00174593305118404	-30.9171159732649
	32.0143957539672	1e-14	0
	40.4856042460328	1e-14	19.2983781171347
	40.4856042460328	36.2447891214722	0.00445212928051931
	72.5
 5	4.77099332562972e-10	0.00677658170867332	-25.6233960034673
	27.7926306940138	1e-14	0
	44.7073693059862	1e-14	19.2983781171399
	44.7073693059862	36.259774080379	0.017280283357117
	72.5
 6	9.52873584050522e-10	0.0268130632545575	-15.0337184169599
	19.3513382210192	1e-14	0
	53.1486617789808	1e-14	19.2983781171473
	53.1486617789808	36.32786826597	0.0683733112991215
	72.5
 7	1.47643679202526e-09	0.0641416966985625	-3.37472973651863
	10.0677985824709	1e-14	0
	62.4322014175291	1e-14	19.2983781171577
	62.4322014175291	36.4737164577433	0.163561326581334
	72.5
 8	2e-09	0.117880387383729	7.66034475244621
	0.160344752446207	6.46764577481052	0
	72.3396552475538	1e-14	12.855906801376
	72.3396552475538	36.7121331682079	0.300594987828509
	72.5
 9	2.00957678255367e-09	0.119018137474889	7.64046299420637
	0.140462994206374	5.6507719447642	0
	72.3595370057936	1e-14	-5.65148931125235
	72.3595370057936	36.71745956035	0.303496250560967
	72.5
 10	2.02873034766102e-09	0.121294401929088	7.60579771879796
	0.105797718797959	4.23660966872477	0
	72.394202281202	1e-14	-4.23508462087615
	72.394202281202	36.728160674995	0.309300724919175
	72.5
 11	2.06703747787572e-09	0.125849997647978	7.55997001151562
	0.0599700115156168	2.38679480313953	0
	72.4400299884844	1e-14	-2.38826822173357
	72.4400299884844	36.7498491384361	0.320917494002343
	72.5
 12	2.14365173830511e-09	0.134963836027122	7.51874540054965
	0.0187454005496477	0.741941577410547	0
	72.4812545994504	1e-14	-0.740425417598704
	72.4812545994504	36.7943469358527	0.344157781869161
	72.5
 13	2.18195886851981e-09	0.139519513317249	7.51198444584485
	0.0119844458448455	0.473911509776717	0
	72.4880155541552	1e-14	-0.474738996407176
	72.4880155541552	36.8171497314586	0.355774758958985
	72.5
 14	2.2585731289492e-09	0.14862361064975	7.50594029031073
	0.00594029031073262	0.234710744725881	0
	72.4940597096893	1e-14	-0.233878965223937
	72.4940597096893	36.8638501502315	0.378990207156863
	72.5
 15	2.41180164980798e-09	0.166796916405375	7.50386812218778
	0.00386812218778232	0.15279321326553	0
	72.4961318778122	1e-14	-0.153619005209401
	72.4961318778122	36.9616084850245	0.425332136833707
	72.5
 16	2.71825869152555e-09	0.202985092772811	7.50499669110511
	0.00499669110510581	0.197402439686973	0
	72.4950033088949	1e-14	-0.196535165722567
	72.4950033088949	37.1744439737115	0.517611986570668
	72.5
 17	3.3311727749607e-09	0.274635251446981	7.50671373423529
	0.00671373423529076	0.265298479160509	0
	72.4932862657647	1e-14	-0.266153948235032
	72.4932862657647	37.6685776607854	0.700319891189802
	72.5
 18	4.55700094183098e-09	0.41434732382475	7.51032072764335
	0.0103207276433466	0.408030098151883	0
	72.4896792723567	1e-14	-0.407145605390828
	72.4896792723567	38.923326687105	1.05658567575311
	72.5
 19	7.00865727557154e-09	0.674276783194639	7.51684183130531
	0.0168418313053138	0.666427518967735	0
	72.4831581686947	1e-14	-0.667301790138577
	72.4831581686947	42.4254363691756	1.71940579714633
	72.5
 20	1.07824788304023e-08	1.00453733950961	7.52525590096367
	0.0252559009636713	1.00050343413292	0
	72.4747440990363	1e-14	-0.999628986886323
	72.4747440990363	50.0075421950294	2.56157021574949
	72.5
 21	1.45430658283929e-08	1.22650552247605	7.53083988067812
	0.0308398806781156	1.22262910009502	0
	72.4691601193219	1e-14	-1.22349976336823
	72.4691601193219	59.499125719831	3.12758908231392
	72.5
 22	1.83960096665674e-08	1.32416536137866	7.53339808707769
	0.0333980870776855	1.32450334692606	0
	72.4666019129223	1e-14	-1.32363231348264
	72.4666019129223	70.203043059202	3.37662167151558
	72.5
 23	2.2197143655936e-08	1.28641775477187	7.53246624397448
	0.0324662439744827	1.28738691391928	0
	72.4675337560255	1e-14	-1.28825740568978
	72.4675337560255	80.6633571037073	3.28036527466828
	72.5
 24	2.4786071827968e-08	1.18728678517304	7.53005248405923
	0.030052484059226	1.19128702856741	0
	72.4699475159408	1e-14	-1.19041635255136
	72.4699475159408	87.2235979958546	3.02758130219125
	72.5
 25	2.7375e-08	1.03514956361397	7.52622498850734
	0.0262249885073373	1.03902900642633	0
	72.4737750114927	1e-14	-1.0398996783035
	72.4737750114927	92.9566353935627	2.63963138721562
	72.5
 26	2.75055408357209e-08	1.02518603561927	4.44964155393794
	2.17127498277421	4.54710926185383	0
	70.3287250172258	1e-14	-23.8319339391853
	70.3287250172258	93.2159701883659	2.61422439082915
	72.5
 27	2.7702572295999e-08	1.00890342497679	-0.0274995653973207
	5.57539227456424	1e-14	0
	66.9246077254358	1e-14	-19.3119315570107
	66.9246077254358	93.6008108256505	2.57270373369081
	72.5
 28	2.80195514654267e-08	0.977361003009785	-6.96262557580533
	11.3194330412629	1e-14	0
	61.1805669587371	1e-14	-19.2848246773405
	61.1805669587371	94.1901696162803	2.49227055767495
	72.5
 29	2.8485282732516e-08	0.918942400178508	-17.1601309571923
	19.7511783434462	1e-14	0
	52.7488216565538	1e-14	-19.3119315570249
	52.7488216565538	94.9807423777335	2.3433031204552
	72.5
 30	2.89062038363138e-08	0.853895852008142	-26.3862376876652
	27.3619157648856	1e-14	0
	45.1380842351144	1e-14	-19.2848246773566
	45.1380842351144	95.6087300990112	2.17743442262076
	72.5
 31	2.9375e-08	0.767941871265783	-36.6749922394333
	35.8250077605667	1e-14	0
	36.6749922394333	1e-14	-19.3119315570409
	36.6749922394333	96.1983892595995	1.95825177172775
	72.5
 32	2.93974174293138e-08	0.763491075925671	-36.6685697148346
	35.8314302851654	1e-14	0
	36.6685697148346	1e-14	-3.58433283054183e-11
	36.6685697148346	96.2234557043041	1.94690224361046
	72.5
 33	2.94285476647103e-08	0.757308172193293	-36.6596871108498
	35.8403128891502	1e-14	0
	36.6596871108498	1e-14	-3.58504337327759e-11
	36.6596871108498	96.2580540216851	1.9311358390929
	72.5
 34	2.94821521108811e-08	0.74665111793205	-36.6445611524888
	35.8554388475112	1e-14	0
	36.6445611524888	1e-14	-3.58681973011699e-11
	36.6445611524888	96.3166433256708	1.90396035072673
	72.5
 35	2.95893610032228e-08	0.72529833694382	-36.6149531088269
	35.8850468911731	1e-14	0
	36.6149531088269	1e-14	-3.58950468911731e-11
	36.6149531088269	96.4300725327042	1.84951075920674
	72.5
 36	2.98037787879063e-08	0.68244594635902	-36.5583199763959
	35.9416800236041	1e-14	0
	36.5583199763959	1e-14	-3.59516800236041e-11
	36.5583199763959	96.6419110756774	1.7402371632155
	72.5
 37	3.02326143572731e-08	0.596216904027236	-36.4554395265877
	36.0445604734123	1e-14	0
	36.4554395265877	1e-14	-3.60545604734123e-11
	36.4554395265877	97.0053633065331	1.52035310526945
	72.5
 38	3.10902854960068e-08	0.422167878247686	-36.2915622630126
	36.2084377369874	1e-14	0
	36.2915622630126	1e-14	-3.62184377369874e-11
	36.2915622630126	97.4907289672663	1.0765280895316
	72.5
 39	3.28056277734741e-08	0.071752053529654	-36.1326002512983
	36.3673997487017	1e-14	0
	36.1326002512983	1e-14	-3.63773997487017e-11
	36.1326002512983	97.498489614939	0.182967736500618
	72.5
 40	3.4840313886737e-08	-0.338587496024461	-36.234465709226
	36.265534290774	1e-14	0
	36.234465709226	1e-14	-3.6275534290774e-11
	36.234465709226	95.8745425195647	-0.863398114862375
	72.5
 41	3.6875e-08	-0.730428097310682	-36.6425665294494
	35.8574334705506	1e-14	0
	36.6425665294494	1e-14	-3.58674334705506e-11
	36.6425665294494	92.5614009196672	-1.86259164814224
	72.5
 42	3.70068699568956e-08	-0.75481551002763	-36.7992868799867
	35.7007131200133	1e-14	0.659349784478202
	36.7992868799867	1e-14	-3.57107131200133e-11
	36.7992868799867	92.2874311262358	-1.92477955057046
	72.5
 43	3.72097561237934e-08	-0.792109131909732	-37.0418257991118
	35.4581742008882	1e-14	1.673780618967
	37.0418257991118	1e-14	-3.54681742008882e-11
	37.0418257991118	91.8584498254552	-2.01987828636982
	72.5
 44	3.75008013948935e-08	-0.844799411390345	-37.3946676640822
	35.1053323359178	1e-14	3.12900697446772
	37.3946676640822	1e-14	-3.51153323359178e-11
	37.3946676640822	91.2172656864489	-2.15423849904538
	72.5
 45	3.76532984076588e-08	-0.87202589340277	-37.5520625414858
	34.9479374585142	1e-14	3.89149203829405
	37.5520625414858	1.04039949443725	-3.49579374585142e-11
	37.5520625414858	90.8693161036781	-2.22366602817706
	72.5
 46	3.78311393655266e-08	-0.903558845647433	-37.3665719088086
	35.1334280911914	1e-14	4.78069682763316
	37.3665719088086	11.1188759439569	-3.51434280911914e-11
	37.3665719088086	90.4529797448498	-2.30407505640095
	72.5
 47	3.80428451200014e-08	-0.941410062266677	-35.7339183047654
	36.7660816952346	1e-14	5.83922560000721
	35.7339183047654	36.6538636154652	-3.67760816952346e-11
	35.7339183047654	89.9409372971169	-2.40059565878002
	72.5
 48	3.82053475704183e-08	-0.971441918533175	-32.8363805356437
	39.6636194643563	1e-14	6.65173785209156
	32.8363805356437	65.1184966643968	-3.96736194643563e-11
	32.8363805356437	89.5336718783557	-2.4771768922596
	72.5
 49	3.83690519679128e-08	-1.00358204821037	-27.9871319948597
	44.5128680051403	1e-14	7.47025983956423
	27.9871319948597	99.5614758517494	-4.45228680051403e-11
	27.9871319948597	89.107756985431	-2.55913422293644
	72.5
 50	3.85273899673934e-08	-1.03751222855577	-21.2039012009356
	51.2960987990644	1e-14	8.26194983696716
	21.2039012009356	135.635504808845	-5.13060987990644e-11
	21.2039012009356	88.6774235526412	-2.64565618281722
	72.5
 51	3.86987997788125e-08	-1.07869631499384	-11.4787934847511
	61.0212065152489	1e-14	9.11899889406273
	11.4787934847511	173.698996732138	-6.10312065152489e-11
	11.4787934847511	88.1865116775717	-2.75067560323428
	72.5
 52	3.87428498341094e-08	-1.0901604035284	-8.59083179365211
	63.9091682063479	1e-14	9.33924917054705
	8.59083179365211	182.723469219064	-6.39191682063479e-11
	8.59083179365211	88.0556418067214	-2.77990902899741
	72.5
 53	3.88089249170547e-08	-1.10811872739613	-4.22617675276769
	68.2738232472323	1e-14	9.66962458527352
	4.22617675276769	176.358734361022	-6.82838232472323e-11
	4.22617675276769	87.855325234143	-2.82570275486012
	72.5
 54	3.88419624585273e-08	-1.11742191307217	-2.40365364400731
	70.0963463559927	1e-14	9.83481229263676
	2.40365364400731	124.702318353253	-7.01063463559927e-11
	2.40365364400731	87.7533825455536	-2.84942587833404
	72.5
 55	3.88584812292637e-08	-1.12213776088427	-1.73882288907337
	70.7611771109266	1e-14	9.91740614631836
	1.73882288907337	96.8713266233982	-7.07711771109266e-11
	1.73882288907337	87.7020009923515	-2.86145129025488
	72.5
 56	3.8875e-08	-1.1268829321642	-1.23545864639505
	71.2645413536049	1e-14	9.99999999999999
	1.23545864639505	72.614445542329	-7.12745413536049e-11
	1.23545864639505	87.6503784043007	-2.87355147701872
	72.5
 57	3.88857924912376e-08	-1.12999862008218	-0.998084843332424
	71.5019151566676	1e-14	10
	0.998084843332424	59.7060456314267	-7.15119151566676e-11
	0.998084843332424	87.6164855273318	-2.88149648120956
	72.5
 58	3.89037065109848e-08	-1.13517841159463	-0.667441583819854
	71.8325584161801	1e-14	10
	0.667441583819854	40.8924028699626	-7.18425584161801e-11
	0.667441583819854	87.5601085205958	-2.89470494956629
	72.5
 59	3.89216746193594e-08	-1.14038704194843	-0.444068325707102
	72.0559316742929	1e-14	10
	0.444068325707102	27.6382278388149	-7.20659316742929e-11
	0.444068325707102	87.5033290592757	-2.90798695696851
	72.5
 60	3.89509409464765e-08	-1.14888502741707	-0.226349920576681
	72.2736500794233	1e-14	10
	0.226349920576681	14.3009350011654	-7.22836500794233e-11
	0.226349920576681	87.4103841056479	-2.92965681991354
	72.5
 61	3.89802346849893e-08	-1.15739773532991	-0.118851390491457
	72.3811486095085	1e-14	10
	0.118851390491457	7.56418032059281	-7.23911486095085e-11
	0.118851390491457	87.3168047385674	-2.95136422509127
	72.5
 62	3.90156629418596e-08	-1.16769074531439	-0.0589759982459405
	72.4410240017541	1e-14	10
	0.0589759982459405	3.7686617023949	-7.2451024001754e-11
	0.0589759982459405	87.2029258270022	-2.97761140055168
	72.5
 63	3.90562387516932e-08	-1.17946852859756	-0.0323759437767587
	72.4676240562232	1e-14	10
	0.0323759437767587	2.07257659648968	-7.24776240562232e-11
	0.0323759437767587	87.0715755771329	-3.00764474792378
	72.5
 64	3.91092467820675e-08	-1.19483134754963	-0.0216090835586741
	72.4783909164413	1e-14	10
	0.0216090835586741	1.38432542056691	-7.24883909164413e-11
	0.0216090835586741	86.8985100058768	-3.04681993625157
	72.5
 65	3.91799197046315e-08	-1.21526747850043	-0.0190369543776931
	72.4809630456223	1e-14	10
	0.0190369543776931	1.21975949716974	-7.24909630456223e-11
	0.0190369543776931	86.6651970977981	-3.09893207017611
	72.5
 66	3.92841153732736e-08	-1.24529635994722	-0.019219750317636
	72.4807802496824	1e-14	10
	0.019219750317636	1.23145673596754	-7.24907802496824e-11
	0.019219750317636	86.3158786688496	-3.17550571786541
	72.5
 67	3.94533042845903e-08	-1.29379336309825	-0.0200133588257674
	72.4799866411742	1e-14	10
	0.0200133588257674	1.28223696489126	-7.24899866411742e-11
	0.0200133588257674	85.7352051129661	-3.29917307590054
	72.5
 68	3.97916821072236e-08	-1.38977495431966	-0.0215069184309514
	72.478493081569	1e-14	10
	0.0215069184309514	1.37778993626796	-7.2488493081569e-11
	0.0215069184309514	84.524430774356	-3.54392613351513
	72.5
 69	4.04684377524904e-08	-1.57741505663984	-0.0244527673561999
	72.4755472326438	1e-14	10
	0.0244527673561999	1.56619935199696	-7.24855472326438e-11
	0.0244527673561999	81.9097117150397	-4.02240839443159
	72.5
 70	4.18219490430238e-08	-1.93331447232365	-0.0300280342471818
	72.4699719657528	1e-14	10
	0.0300280342471818	1.92257587074642	-7.24799719657528e-11
	0.0300280342471818	75.9470489971085	-4.92995190442531
	72.5
 71	4.45289716240907e-08	-2.55268669926906	-0.0397638253678619
	72.4602361746321	1e-14	10
	0.0397638253678619	2.5442564745265	-7.24702361746321e-11
	0.0397638253678619	61.4488131479786	-6.50935108313611
	72.5
 72	4.73027806379645e-08	-3.0381893385334	-0.0474099097136577
	72.4525900902863	1e-14	10
	0.0474099097136577	3.03192711319824	-7.24625900902863e-11
	0.0474099097136577	43.7128853017823	-7.74738281326016
	72.5
 73	4.9826359084244e-08	-3.33017246348323	-0.0520348895704229
	72.4479651104296	1e-14	10
	0.0520348895704229	3.32666631453362	-7.24579651104296e-11
	0.0520348895704229	25.871455373928	-8.49193978188224
	72.5
 74	5.18294994478672e-08	-3.4530342040564	-0.0539919986679881
	72.446008001332	1e-14	10
	0.0539919986679881	3.45133291683373	-7.2456008001332e-11
	0.0539919986679881	11.1031419029699	-8.80523722034382
	72.5
 75	5.33040416517003e-08	-3.48027156305116	-0.0544472484885587
	72.4455527515114	1e-14	10
	0.0544472484885587	3.48032731640964	-7.24555527515114e-11
	0.0544472484885587	0.157673908086725	-8.87469248578045
	72.5
 76	5.47052525263973e-08	-3.45658505898231	-0.0540946450427534
	72.4459053549572	1e-14	10
	0.0540946450427534	3.45787051607291	-7.24559053549572e-11
	0.0540946450427534	-10.1223499054817	-8.81429190040489
	72.5
 77	5.60912315541633e-08	-3.38652065724459	-0.0530192071663001
	72.4469807928337	1e-14	10
	0.0530192071663001	3.38937083675863	-7.24569807928337e-11
	0.0530192071663001	-20.0334739868758	-8.63562767597371
	72.5
 78	5.78685733610127e-08	-3.2314344220447	-0.0506089188382705
	72.4493910811617	1e-14	10
	0.0506089188382705	3.23581213799406	-7.24593910811617e-11
	0.0506089188382705	-32.1511617874058	-8.24015777621398
	72.5
 79	5.9956023224665e-08	-2.96171310526833	-0.046408119947811
	72.4535918800522	1e-14	10
	0.046408119947811	2.96806114108582	-7.24635918800522e-11
	0.046408119947811	-45.2164415375706	-7.55236841843423
	72.5
 80	6.23946723607167e-08	-2.53994223198088	-0.0398222981801455
	72.4601777018199	1e-14	10
	0.0398222981801455	2.54798780398651	-7.24701777018198e-11
	0.0398222981801455	-58.4139120181738	-6.47685269155124
	72.5
 81	6.425e-08	-2.15272572382779	-0.0337767493638797
	72.4662232506361	1e-14	10
	0.0337767493638797	2.16204719060637	-7.24762232506361e-11
	0.0337767493638797	-66.6886764759909	-5.48945059576087
	72.5
 82	6.43701831596366e-08	-2.12580844669111	-0.00575419749096714
	72.494245802509	1e-14	9.39908420181682
	0.00575419749096714	0.334888037982036	-7.2504245802509e-11
	0.00575419749096714	-67.1636254531341	-5.42081153906234
	72.5
 83	6.45608979051197e-08	-2.08286292369874	0.0102849446195582
	72.5102849446196	1e-14	8.45579541902118
	0.0102849446195582	0.502604366260125	-7.25202849446195e-11
	-0.0102849446195582	-67.9080034005947	-5.31130045543178
	72.5
 84	6.48348131610304e-08	-2.0203758011748	0.0076440590674387
	72.5076440590674	1e-14	7.08357825391566
	0.0076440590674387	0.270102022598682	-7.25176440590674e-11
	-0.0076440590674387	-68.944341754527	-5.15195829299574
	72.5
 85	6.52046011586281e-08	-1.93456332718252	0.0224643084896172
	72.5224643084896	1e-14	5.24945851534906
	0.0224643084896172	0.385490863497759	-7.25324643084896e-11
	-0.0224643084896172	-70.2813593297789	-4.93313648431542
	72.5
 86	6.56202642987325e-08	-1.83624507013121	0.0745832883847029
	72.5745832883847	1e-14	3.22326179472207
	0.0745832883847029	0	-7.25845832883847e-11
	-0.0745832883847029	-71.6980797521274	-4.68242492883459
	72.5
 87	6.625e-08	-1.6839560497523	0.228701129722831
	72.7287011297228	1e-14	0.228701129722831
	0.228701129722831	0	-7.27387011297228e-11
	-0.228701129722831	-73.6680367084935	-4.29408792686837
	72.5
 88	6.63234882550938e-08	-1.66589842672855	0.182762032570563
	72.6827620325706	1e-14	0.182762032570563
	0.182762032570563	0	-7.26927620325705e-11
	-0.182762032570563	-73.8824662985995	-4.2480409881578
	72.5
 89	6.64608820601899e-08	-1.63202786101015	0.0977473177464327
	72.5977473177464	1e-14	0.0977473177464327
	0.0977473177464327	0	-7.26077473177464e-11
	-0.0977473177464327	-74.2781332087822	-4.16167104557588
	72.5
 90	6.66024785869871e-08	-1.59689407194879	0.011965320774194
	72.5119653207742	1e-14	0.011965320774194
	0.011965320774194	0	-7.25219653207742e-11
	-0.011965320774194	-74.6749294200869	-4.07207988346942
	72.5
 91	6.68856716405817e-08	-1.52596222198165	-0.153963032225957
	72.346036967774	1e-14	0
	0.153963032225957	1e-14	-7.2356036967774e-11
	0.153963032225957	-75.4348736386442	-3.89120366605321
	72.5
 92	6.74520577477708e-08	-1.38162852622678	-0.462944105090489
	72.0370558949095	1e-14	0
	0.462944105090489	1e-14	-7.20470558949095e-11
	0.462944105090489	-76.8187578263595	-3.5231527418783
	72.5
 93	6.85848299621489e-08	-1.08460280029214	-0.98710232899163
	71.5128976710084	1e-14	0
	0.98710232899163	1e-14	-7.15228976710084e-11
	0.98710232899163	-79.0333404389598	-2.76573714074496
	72.5
 94	7.08503743909053e-08	-0.469529021233864	-1.64771430528619
	70.8522856947138	1e-14	0
	1.64771430528619	1e-14	-7.08622856947138e-11
	1.64771430528619	-81.2105987808838	-1.19729900414635
	72.5
 95	7.23001871954526e-08	-0.0691907879476695	-1.79425588970325
	70.7057441102967	1e-14	0
	1.79425588970325	1e-14	-7.07157441102967e-11
	1.79425588970325	-81.0206329641047	-0.176436509266557
	72.5
 96	7.375e-08	0.327447055510089	-1.72400548873541
	70.7759945112646	1e-14	0
	1.72400548873541	1e-14	-7.07859945112646e-11
	1.72400548873541	-79.6108838637485	0.834989991550728
	72.5
 97	7.3786749653333e-08	0.337483034618432	-0.901617528364843
	70.1283963383143	1e-14	0
	2.37160366168569	1e-14	19.2983781170973
	2.37160366168569	-79.558904064835	0.860581738277001
	72.5
 98	7.38300303287731e-08	0.349353109343719	0.0670187846749148
	69.3658056337525	1e-14	0
	3.13419436624749	1e-14	19.2983781170985
	3.13419436624749	-79.497011191065	0.890850428826483
	72.5
 99	7.39165916796531e-08	0.373395801181392	2.00487466632388
	67.8412074801983	1e-14	0
	4.65879251980166	1e-14	19.2983781170982
	4.65879251980166	-79.3691468778979	0.95215929301255
	72.5
 100	7.39598723550932e-08	0.385568080679201	2.97409668897148
	67.0792024852444	1e-14	0
	5.42079751475561	1e-14	19.2983781171017
	5.42079751475561	-79.3031623849215	0.983198605731964
	72.5
 101	7.40464337059733e-08	0.410241445002522	4.7168882269931
	65.3595399880629	12.084196853726	0
	7.14046001193713	1e-14	7.2146302400967
	7.14046001193713	-79.1669619574011	1.04611568475643
	72.5
 102	7.41131988777103e-08	0.42963379356652	5.61120163500492
	63.5832465265923	35.9820089456229	0
	8.91675347340768	1e-14	-16.6618123494153
	8.91675347340768	-79.0578578360727	1.09556617359463
	72.5
 103	7.41694373558016e-08	0.446292599619386	5.97598265246349
	61.698488420398	48.9202099462168	0
	10.801511579602	1e-14	-29.6430565430864
	10.801511579602	-78.9629728090711	1.13804612902943
	72.5
 104	7.41885232167781e-08	0.452024148494386	6.04450987493818
	61.0035812038133	51.443555196606	0
	11.4964187961867	1e-14	-32.1186343055169
	11.4964187961867	-78.9301178396873	1.15266157866068
	72.5
 105	7.42266949387311e-08	0.46361621949732	6.13925685815325
	59.5714593089095	54.8536702257415	0
	12.9285406910905	1e-14	-35.5676826825388
	12.9285406910905	-78.863375537847	1.18222135971817
	72.5
 106	7.42836325142938e-08	0.48123567548458	6.21768416920041
	57.3723835974495	57.3605951762645	0
	15.1276164025505	1e-14	-38.0357107158712
	15.1276164025505	-78.761214461073	1.22715097248568
	72.5
 107	7.43648518301657e-08	0.507064604617757	6.27421259914068
	54.1801393925121	58.5591912989081	0
	18.3198606074879	1e-14	-39.2430364844566
	18.3198606074879	-78.6099580613302	1.29301474177528
	72.5
 108	7.44699434998425e-08	0.541710219427223	6.31917840858693
	50.0214384148872	58.8417530974449	0
	22.4785615851128	1e-14	-39.5252486285214
	22.4785615851128	-78.4043590867854	1.38136105953942
	72.5
 109	7.46254221475181e-08	0.595502805237902	6.37920278579432
	43.8623168850697	58.854369970085	0
	28.6376831149303	1e-14	-39.5543172526968
	28.6376831149303	-78.0790897555277	1.51853215335665
	72.5
 110	7.48893277409951e-08	0.693699791540967	6.4889285888626
	33.41581894906	58.8200733164742	0
	39.08418105094	1e-14	-39.518862840006
	39.08418105094	-77.4667429974602	1.76893446842947
	72.5
 111	7.53196638704975e-08	0.87223078193996	6.69798745040897
	16.4114326305076	58.7538460907048	0
	56.0885673694924	1e-14	-39.4578130817877
	56.0885673694924	-76.2945990761328	2.2241884939469
	72.5
 112	7.54272479028731e-08	0.920404193380129	6.75690386615128
	12.1669877512253	58.7167613960475	0
	60.3330122487747	1e-14	-39.4160342871584
	60.3330122487747	-75.9665878352343	2.34703069311933
	72.5
 113	7.55886239514366e-08	0.99528815667168	6.85179258928964
	5.80683453182657	58.6617684666297	0
	66.6931654681734	1e-14	-39.3657264232855
	66.6931654681734	-75.446754088719	2.53798479951278
	72.5
 114	7.56289679635774e-08	1.01449952329976	6.87676841837302
	4.2180498752754	58.6452246363222	0
	68.2819501247246	1e-14	-39.3445104396446
	68.2819501247246	-75.3115067010926	2.58697378441439
	72.5
 115	7.56894839817887e-08	1.04367227812344	7.0168515660981
	1.9374922945492	49.6716370696434	0
	70.5625077054508	1e-14	-30.3760938946937
	70.5625077054508	-75.1046136632956	2.66136430921477
	72.5
 116	7.575e-08	1.0732058762684	7.72131292973424
	0.221312929734239	8.99901988362189	0
	72.2786870702658	1e-14	10.3033641124619
	72.2786870702658	-74.8930210338321	2.73667498448443
	72.5
 117	7.57693667215564e-08	1.08270436319908	7.67714558256442
	0.177145582564421	7.16123402764525	0
	72.3228544174356	1e-14	-7.16026365237246
	72.3228544174356	-74.8241862029462	2.76089612615764
	72.5
 118	7.57788077928232e-08	1.08733456097718	7.6570855454771
	0.157085545477102	6.33344607145822	0
	72.3429144545229	1e-14	-6.33441642242191
	72.3429144545229	-74.7905839942132	2.7727031304918
	72.5
 119	7.57976899353568e-08	1.09659342294537	7.62465635838501
	0.12465635838501	5.0043494921265	0
	72.375343641615	1e-14	-5.00325601936471
	72.375343641615	-74.723104492497	2.7963132285107
	72.5
 120	7.58354542204239e-08	1.11510306050072	7.58175102685705
	0.0817510268570487	3.26317778457329	0
	72.418248973143	1e-14	-3.2638565245394
	72.418248973143	-74.5870505162171	2.84351280427685
	72.5
 121	7.59109827905583e-08	1.15208058169454	7.54328135267514
	0.0432813526751374	1.71873598851201	0
	72.4567186473249	1e-14	-1.71802334062663
	72.4567186473249	-74.3105906683144	2.93780548332108
	72.5
 122	7.6062039930827e-08	1.22583542241405	7.52918248711862
	0.0291824871186179	1.15666476914655	0
	72.4708175128814	1e-14	-1.15735121879238
	72.4708175128814	-73.7403868974799	3.12588032715584
	72.5
 123	7.62937693098027e-08	1.33840707313823	7.5331779142539
	0.0331779142538977	1.31573276230875	0
	72.4668220857461	1e-14	-1.31499538216001
	72.4668220857461	-72.8211905487316	3.41293803650248
	72.5
 124	7.66659277466949e-08	1.51763580715123	7.53732885970865
	0.0373288597086514	1.48117272486087	0
	72.4626711402913	1e-14	-1.48160005910341
	72.4626711402913	-71.2334121131415	3.86997130823563
	72.5
 125	7.74102446204792e-08	1.86965978774919	7.54636304520481
	0.0463630452048136	1.84187451829412	0
	72.4536369547952	1e-14	-1.84100434707952
	72.4536369547952	-67.6536006777447	4.76763245876043
	72.5
 126	7.88988783680478e-08	2.5431373789658	7.56306970575848
	0.0630697057584797	2.51120517750303	0
	72.4369302942415	1e-14	-2.51197703818074
	72.4369302942415	-58.9478936887092	6.48500031636279
	72.5
 127	8.14630952456049e-08	3.58300940578702	7.58911961473855
	0.08911961473855	3.56080822164528	0
	72.4108803852614	1e-14	-3.56002386261142
	72.4108803852614	-39.5847636587668	9.13667398475689
	72.5
 128	8.36288708901371e-08	4.31869618348774	7.60726600680808
	0.107266006808075	4.29624751529973	0
	72.3927339931919	1e-14	-4.29702459584331
	72.3927339931919	-19.5031011889121	11.0126752678937
	72.5
 129	8.53573444966604e-08	4.79607472254003	7.61919761646698
	0.119197616466977	4.7817316566386	0
	72.380802383533	1e-14	-4.78095457450261
	72.380802383533	-1.52552959456752	12.2299905424771
	72.5
 130	8.66368037074419e-08	5.08083343180498	7.62616994276253
	0.12616994276253	5.06613276928319	0
	72.3738300572375	1e-14	-5.06690898988807
	72.3738300572375	12.6443297014199	12.9561252511027
	72.5
 131	8.79738806415902e-08	5.31253691821531	7.63199238392822
	0.131992383928221	5.30402852044588	0
	72.3680076160718	1e-14	-5.30325202483131
	72.3680076160718	28.018935041843	13.546969141449
	72.5
 132	8.96495829710325e-08	5.50471669009526	7.63673656673399
	0.136736566733987	5.4981364976181	0
	72.363263433266	1e-14	-5.49891195555607
	72.363263433266	47.792500981003	14.0370275597429
	72.5
 133	9.16460823232854e-08	5.58874368903175	7.63896452913571
	0.138964529135706	5.5893765600173	0
	72.3610354708643	1e-14	-5.58860067410169
	72.3610354708643	71.5685639359199	14.2512964070309
	72.5
 134	9.39491069930594e-08	5.49116901287095	7.63668006481477
	0.136680064814769	5.49582330775179	0
	72.3633199351852	1e-14	-5.49659891196273
	72.3633199351852	98.4658254174801	14.0024809828209
	72.5
 135	9.65209298624971e-08	5.14600434172178	7.62843038335163
	0.128430383351628	5.15844773452542	0
	72.3715696166484	1e-14	-5.1576710572887
	72.3715696166484	126.688767952342	13.1223110713905
	72.5
 136	9.88229649312485e-08	4.64184117202721	7.61615575639682
	0.116155756396822	4.65781711647694	0
	72.3838442436032	1e-14	-4.6585935592315
	72.3838442436032	149.373325933633	11.8366949886694
	72.5
 137	1.01125e-07	3.97633228614763	7.59991638934514
	0.0999163893451396	3.99795718930961	0
	72.4000836106549	1e-14	-3.99717845426455
	72.4000836106549	168.781956497301	10.1396473296765
	72.5
 138	1.01155942294414e-07	3.96632011953846	6.77773095042627
	0.515422726968339	15.4426980624995	0
	71.9845772730317	1e-14	-34.7774077206916
	71.9845772730317	169.017546844527	10.1141163048231
	72.5
 139	1.01217826883241e-07	3.94615909585598	5.15832207723859
	1.37139740686452	13.3456770770883	0
	71.1286025931355	1e-14	-32.6073829140991
	71.1286025931355	169.487051683975	10.0627056944328
	72.5
 140	1.01341596060895e-07	3.90494536456747	2.2766805961181
	3.44052303191174	1e-14	0
	69.0594769680883	1e-14	-19.3350503973282
	69.0594769680883	170.415706395512	9.95761067964706
	72.5
 141	1.01489064935353e-07	3.85413993049925	-0.790036846024037
	6.27256056810361	1e-14	0
	66.2274394318964	1e-14	-19.261705837016
	66.2274394318964	171.503411661287	9.82805682277309
	72.5
 142	1.01691596621579e-07	3.78123787686185	-5.0065244526981
	10.1573404104453	1e-14	0
	62.3426595895547	1e-14	-19.3350503973349
	62.3426595895547	172.962624129078	9.64215658599771
	72.5
 143	1.01888891965185e-07	3.70676696016604	-9.11945247395612
	13.936226133436	1e-14	0
	58.563773866564	1e-14	-19.2617058370235
	58.563773866564	174.344370618362	9.4522557484234
	72.5
 144	1.02283482652397e-07	3.54773772253905	-17.3625955315038
	21.4767105643857	1e-14	0
	51.0232894356143	1e-14	-19.3350503973463
	51.0232894356143	176.984122645535	9.04673119247458
	72.5
 145	1.02704241326199e-07	3.36356590052859	-26.1794910138207
	29.4901620341245	1e-14	0
	43.0098379658755	1e-14	-19.2617058370391
	43.0098379658755	179.608091889494	8.5770930463479
	72.5
 146	1.03125e-07	3.16464530877101	-35.026629340604
	37.473370659396	1e-14	0
	35.026629340604	1e-14	-19.3350503973616
	35.026629340604	182.022973625959	8.06984553736606
	72.5
 147	1.03146237838957e-07	3.15422680466185	-35.0014920049939
	37.4985079950061	1e-14	0
	35.0014920049939	1e-14	-3.75095510207757e-11
	35.0014920049939	182.138936144545	8.04327835188771
	72.5