Title: // Class-D RF Power Amplifier - 300W, 13.56 MHz
Date: 8:33:18 PM, Sat Jun 27, 2026
Plotname: Transient Analysis `tran': time = (0 s -> 3 us)
Flags: real
No. Variables:       13
No. Points:    16797
Variables:	0	time	s
		1	L1:i	A plot=0 grid=0
		2	M1:vgs	V plot=0 grid=0
		3	M1:vds	V plot=0 grid=0
		4	M1:id	A plot=0 grid=0
		5	M2:vgs	V plot=0 grid=0
		6	M2:vds	V plot=0 grid=0
		7	M2:id	A plot=0 grid=0
		8	Vdd:i	A plot=0 grid=0
		9	mid	V plot=0 grid=0
		10	lc_out	V plot=0 grid=0
		11	rload	V plot=0 grid=0
		12	vdd	V plot=0 grid=0
Values:
 0	0	0	0
	72.5	2.859e-12	0
	0	0	0
	0	0	0
	72.5
 1	5.23858225095302e-11	0	-0.0282091258793651
	72.4717908741206	2.859e-12	0.261929112547651
	0.0282091258793651	2.859e-12	-7.53307908741206e-11
	0.0282091258793651	0.0282091258793651	0
	72.5
 2	9.39975982357548e-11	0	-0.0508297439522293
	72.4491702560478	2.859e-12	0.469987991178774
	0.0508297439522293	2.859e-12	-7.53081702560478e-11
	0.0508297439522293	0.0508297439522293	0
	72.5
 3	1.64894094647354e-10	0	-0.0897931949557003
	72.4102068050443	2.859e-12	0.824470473236768
	0.0897931949557003	2.859e-12	-7.52692068050443e-11
	0.0897931949557003	0.0897931949557003	0
	72.5
 4	3.06687087470551e-10	0	-0.169271192721241
	72.3307288072788	2.859e-12	1.53343543735276
	0.169271192721241	2.859e-12	-7.51897288072788e-11
	0.169271192721241	0.169271192721241	0
	72.5
 5	5.06687087470551e-10	0	-0.284721514241904
	72.2152784857581	2.859e-12	2.53343543735276
	0.284721514241904	2.859e-12	-7.50742784857581e-11
	0.284721514241904	0.284721514241904	0
	72.5
 6	7.06687087470551e-10	0	-0.381874208411605
	72.1181257915884	2.859e-12	3.53343543735276
	0.381874208411605	0.767564419097353	-7.49771257915884e-11
	0.381874208411605	0.381874208411605	0
	72.5
 7	9.06687087470551e-10	0	-0.416966972212125
	72.0830330277879	2.859e-12	4.53343543735276
	0.416966972212125	4.82551774313689	-7.49420330277879e-11
	0.416966972212125	0.416966972212125	0
	72.5
 8	1.10668708747055e-09	0	-0.310430874501138
	72.1895691254989	2.859e-12	5.53343543735276
	0.310430874501138	6.77518389035365	-7.50485691254989e-11
	0.310430874501138	0.310430874501138	0
	72.5
 9	1.30668708747055e-09	0	-0.182506537353292
	72.3174934626467	2.859e-12	6.53343543735276
	0.182506537353292	5.87331321207026	-7.51764934626467e-11
	0.182506537353292	0.182506537353292	0
	72.5
 10	1.50668708747055e-09	0	-0.1094503667323
	72.3905496332677	2.859e-12	7.53343543735275
	0.1094503667323	4.6265369185871	-7.52495496332677e-11
	0.1094503667323	0.1094503667323	0
	72.5
 11	1.70668708747055e-09	0	-0.0788446565878799
	72.4211553434121	2.859e-12	8.53343543735276
	0.0788446565878799	4.11200841341129	-7.52801553434121e-11
	0.0788446565878799	0.0788446565878799	0
	72.5
 12	1.85334354373528e-09	0	-0.0673131196169036
	72.4326868803831	2.859e-12	9.26671771867638
	0.0673131196169036	3.99482930023708	-7.52916868803831e-11
	0.0673131196169036	0.0673131196169036	0
	72.5
 13	2e-09	0	-0.0590266847479282
	72.4409733152521	2.859e-12	10
	0.0590266847479282	3.92674092264413	-7.52999733152521e-11
	0.0590266847479282	0.0590266847479282	0
	72.5
 14	2.04876782849692e-09	0	-0.0337166499934957
	72.4662833500065	2.859e-12	10
	0.0337166499934957	2.24714806162171	-7.53252833500065e-11
	0.0337166499934957	0.0337166499934957	0
	72.5
 15	2.11724159950977e-09	0	-0.0105582956774983
	72.4894417043225	2.859e-12	10
	0.0105582956774983	0.704879539220527	-7.53484417043225e-11
	0.0105582956774983	0.0105582956774983	0
	72.5
 16	2.18004166571702e-09	0	-0.00372932428103708
	72.496270675719	2.859e-12	10
	0.00372932428103708	0.249096361983684	-7.5355270675719e-11
	0.00372932428103708	0.00372932428103708	0
	72.5
 17	2.30564179813153e-09	0	-8.77917599400378e-05
	72.4999122082401	2.859e-12	10
	8.77917599400378e-05	0.00586551580847507	-7.53589122082401e-11
	8.77917599400378e-05	8.77917599400378e-05	0
	72.5
 18	2.47262737523143e-09	0	1.02804454164324e-05
	72.5000102804454	2.859e-12	10.0000102804454
	1.02804454164324e-05	0.0006868588342842	-7.53590102804454e-11
	-1.02804454164324e-05	-1.02804454164324e-05	0
	72.5
 19	2.67262737523143e-09	0	3.38744028503986e-06
	72.5000033874403	2.859e-12	10.0000033874403
	3.38744028503986e-06	0.000226322111823004	-7.53590033874403e-11
	-3.38744028503986e-06	-3.38744028503986e-06	0
	72.5
 20	2.87262737523143e-09	0	-6.96047763814803e-07
	72.4999993039522	2.859e-12	10
	6.96047763814803e-07	4.65044221365481e-05	-7.53589993039522e-11
	6.96047763814803e-07	6.96047763814803e-07	0
	72.5
 21	3.07262737523143e-09	0	1.43466235798352e-07
	72.5000001434662	2.859e-12	10.0000001434662
	1.43466235798352e-07	9.58528300318806e-06	-7.53590001434662e-11
	-1.43466235798352e-07	-1.43466235798352e-07	0
	72.5
 22	3.27262737523143e-09	0	-2.95681595553096e-08
	72.4999999704318	2.859e-12	10
	2.95681595553096e-08	1.97551132551874e-06	-7.53589999704318e-11
	2.95681595553096e-08	2.95681595553096e-08	0
	72.5
 23	3.47262737523143e-09	0	6.09334946694189e-09
	72.5000000060933	2.859e-12	10.0000000060933
	6.09334946694189e-09	4.0710957646924e-07	-7.53590000060934e-11
	-6.09334946694189e-09	-6.09334946694189e-09	0
	72.5
 24	3.67262737523143e-09	0	-1.25724232200926e-09
	72.4999999987428	2.859e-12	10
	1.25724232200926e-09	8.39990208564347e-08	-7.53589999987428e-11
	1.25724232200926e-09	1.25724232200926e-09	0
	72.5
 25	3.87262737523143e-09	0	2.57829964761689e-10
	72.5000000002578	2.859e-12	10.0000000002578
	2.57829964761689e-10	1.72261657205214e-08	-7.53590000002578e-11
	-2.57829964761689e-10	-2.57829964761689e-10	0
	72.5
 26	4.07262737523143e-09	0	-5.44516320161249e-11
	72.4999999999455	2.859e-12	10
	5.44516320161249e-11	3.63802879820365e-09	-7.53589999999456e-11
	5.44516320161249e-11	5.44516320161249e-11	0
	72.5
 27	4.27262737523143e-09	0	-5.3126465471012e-11
	72.4999999999469	2.859e-12	10
	5.3126465471012e-11	3.54949161621266e-09	-7.53021565810861e-11
	5.3126465471012e-11	5.3126465471012e-11	0
	72.5
 28	4.47262737523143e-09	0	9.64146465138958e-12
	72.5000000000096	2.859e-12	10.0000000000096
	9.64146465138958e-12	6.44166662412165e-10	-7.54726868377313e-11
	-9.64146465138958e-12	-9.64146465138958e-12	0
	72.5
 29	4.67262737523143e-09	0	-3.29587244768175e-12
	72.4999999999967	2.859e-12	10
	3.29587244768175e-12	2.20204214932733e-10	-7.52453131622751e-11
	3.29587244768175e-12	3.29587244768175e-12	0
	72.5
 30	4.87262737523143e-09	0	-6.29312701256406e-13
	72.4999999999994	2.859e-12	10
	6.29312701256406e-13	4.20457137001354e-11	-7.5472686837721e-11
	6.29312701256406e-13	6.29312701256406e-13	0
	72.5
 31	5.07262737523143e-09	0	-1.17901902383307e-12
	72.4999999999988	2.859e-12	10
	1.17901902383307e-12	7.87727567298828e-11	-7.52453131622772e-11
	1.17901902383307e-12	1.17901902383307e-12	0
	72.5
 32	5.27262737523143e-09	0	-1.06584862637251e-12
	72.4999999999989	2.859e-12	10
	1.06584862637251e-12	7.12116029164337e-11	-7.54726868377205e-11
	1.06584862637251e-12	1.06584862637251e-12	0
	72.5
 33	5.47262737523143e-09	0	-1.08920900098796e-12
	72.4999999999989	2.859e-12	10
	1.08920900098796e-12	7.27723589937355e-11	-7.52453131622773e-11
	1.08920900098796e-12	1.08920900098796e-12	0
	72.5
 34	5.67262737523143e-09	0	-1.08891451556223e-12
	72.4999999999989	2.859e-12	10
	1.08891451556223e-12	7.27526837990759e-11	-7.53021565811381e-11
	1.08891451556223e-12	1.08891451556223e-12	0
	72.5
 35	5.87262737523143e-09	0	-1.08431035883584e-12
	72.4999999999989	2.859e-12	10
	1.08431035883584e-12	7.2445070342106e-11	-7.54726868377205e-11
	1.08431035883584e-12	1.08431035883584e-12	0
	72.5
 36	6.07262737523143e-09	0	-1.08537252640486e-12
	72.4999999999989	2.859e-12	10
	1.08537252640486e-12	7.25160360057887e-11	-7.52453131622773e-11
	1.08537252640486e-12	1.08537252640486e-12	0
	72.5
 37	6.27262737523143e-09	0	-1.08507666661599e-12
	72.4999999999989	2.859e-12	10
	1.08507666661599e-12	7.24962689870186e-11	-7.54726868377205e-11
	1.08507666661599e-12	1.08507666661599e-12	0
	72.5
 38	6.47262737523143e-09	0	-1.08509519548066e-12
	72.4999999999989	2.859e-12	10
	1.08509519548066e-12	7.24975069396888e-11	-7.52453131622773e-11
	1.08509519548066e-12	1.08509519548066e-12	0
	72.5
 39	6.67262737523143e-09	0	-1.08512157737323e-12
	72.4999999999989	2.859e-12	10
	1.08512157737323e-12	7.24992695697765e-11	-7.54726868377205e-11
	1.08512157737323e-12	1.08512157737323e-12	0
	72.5
 40	6.87262737523143e-09	0	-1.08514175963496e-12
	72.4999999999989	2.859e-12	10
	1.08514175963496e-12	7.25006179894045e-11	-7.52453131622773e-11
	1.08514175963496e-12	1.08514175963496e-12	0
	72.5
 41	7.07262737523143e-09	0	-1.08514173183798e-12
	72.4999999999989	2.859e-12	10
	1.08514173183798e-12	7.250061613223e-11	-7.54726868377205e-11
	1.08514173183798e-12	1.08514173183798e-12	0
	72.5
 42	7.27262737523143e-09	0	-1.08512813726687e-12
	72.4999999999989	2.859e-12	10
	1.08512813726687e-12	7.24997078501572e-11	-7.52453131622773e-11
	1.08512813726687e-12	1.08512813726687e-12	0
	72.5
 43	7.47262737523143e-09	0	-1.08511999279345e-12
	72.4999999999989	2.859e-12	10
	1.08511999279345e-12	7.24991637006477e-11	-7.54726868377205e-11
	1.08511999279345e-12	1.08511999279345e-12	0
	72.5
 44	7.67262737523143e-09	0	-1.08512647187243e-12
	72.4999999999989	2.859e-12	10
	1.08512647187243e-12	7.24995965816291e-11	-7.52453131622773e-11
	1.08512647187243e-12	1.08512647187243e-12	0
	72.5
 45	7.87262737523143e-09	0	-1.08513848971282e-12
	72.4999999999989	2.859e-12	10
	1.08513848971282e-12	7.25003995189848e-11	-7.54726868377205e-11
	1.08513848971282e-12	1.08513848971282e-12	0
	72.5
 46	8.07262737523143e-09	0	-1.08514185252761e-12
	72.4999999999989	2.859e-12	10
	1.08514185252761e-12	7.25006241957596e-11	-7.52453131622773e-11
	1.08514185252761e-12	1.08514185252761e-12	0
	72.5
 47	8.27262737523143e-09	0	-1.08513411772296e-12
	72.4999999999989	2.859e-12	10
	1.08513411772296e-12	7.25001074170878e-11	-7.54726868377205e-11
	1.08513411772296e-12	1.08513411772296e-12	0
	72.5
 48	8.47262737523143e-09	0	-1.08512567278165e-12
	72.4999999999989	2.859e-12	10
	1.08512567278165e-12	7.24995431926828e-11	-7.52453131622773e-11
	1.08512567278165e-12	1.08512567278165e-12	0
	72.5
 49	8.67262737523143e-09	0	-1.08512616197449e-12
	72.4999999999989	2.859e-12	10
	1.08512616197449e-12	7.24995758766919e-11	-7.54726868377205e-11
	1.08512616197449e-12	1.08512616197449e-12	0
	72.5
 50	8.87262737523143e-09	0	-1.08513373069874e-12
	72.4999999999989	2.859e-12	10
	1.08513373069874e-12	7.25000815591803e-11	-7.52453131622773e-11
	1.08513373069874e-12	1.08513373069874e-12	0
	72.5
 51	9.07262737523143e-09	0	-1.08513880903279e-12
	72.4999999999989	2.859e-12	10
	1.08513880903279e-12	7.25004208534277e-11	-7.54726868377205e-11
	1.08513880903279e-12	1.08513880903279e-12	0
	72.5
 52	9.27262737523143e-09	0	-1.08513603759482e-12
	72.4999999999989	2.859e-12	10
	1.08513603759482e-12	7.25002356877907e-11	-7.52453131622773e-11
	1.08513603759482e-12	1.08513603759482e-12	0
	72.5
 53	9.47262737523143e-09	0	-1.08512969423192e-12
	72.4999999999989	2.859e-12	10
	1.08512969423192e-12	7.24998118742875e-11	-7.54726868377205e-11
	1.08512969423192e-12	1.08512969423192e-12	0
	72.5
 54	9.67262737523143e-09	0	-1.08512745649672e-12
	72.4999999999989	2.859e-12	10
	1.08512745649672e-12	7.24996623664621e-11	-7.52453131622773e-11
	1.08512745649672e-12	1.08512745649672e-12	0
	72.5
 55	9.87262737523143e-09	0	-1.08513124548173e-12
	72.4999999999989	2.859e-12	10
	1.08513124548173e-12	7.24999155165712e-11	-7.54726868377205e-11
	1.08513124548173e-12	1.08513124548173e-12	0
	72.5
 56	1.00726273752314e-08	0	-1.0851359043059e-12
	72.4999999999989	2.859e-12	10
	1.0851359043059e-12	7.25002267824759e-11	-7.52453131622773e-11
	1.0851359043059e-12	1.0851359043059e-12	0
	72.5
 57	1.02726273752314e-08	0	-1.08513605188179e-12
	72.4999999999989	2.859e-12	10
	1.08513605188179e-12	7.25002366423331e-11	-7.54726868377205e-11
	1.08513605188179e-12	1.08513605188179e-12	0
	72.5
 58	1.04726273752314e-08	0	-1.08513218378047e-12
	72.4999999999989	2.859e-12	10
	1.08513218378047e-12	7.2499978206296e-11	-7.52453131622773e-11
	1.08513218378047e-12	1.08513218378047e-12	0
	72.5
 59	1.06726273752314e-08	0	-1.08512925109301e-12
	72.4999999999989	2.859e-12	10
	1.08512925109301e-12	7.24997822672393e-11	-7.54726868377205e-11
	1.08512925109301e-12	1.08512925109301e-12	0
	72.5
 60	1.08726273752314e-08	0	-1.08513042358628e-12
	72.4999999999989	2.859e-12	10
	1.08513042358628e-12	7.24998606039964e-11	-7.52453131622773e-11
	1.08513042358628e-12	1.08513042358628e-12	0
	72.5
 61	1.10726273752314e-08	0	-1.08513377672762e-12
	72.4999999999989	2.859e-12	10
	1.08513377672762e-12	7.25000846344669e-11	-7.54726868377205e-11
	1.08513377672762e-12	1.08513377672762e-12	0
	72.5
 62	1.12726273752314e-08	0	-1.08513520939204e-12
	72.4999999999989	2.859e-12	10
	1.08513520939204e-12	7.250018035381e-11	-7.52453131622773e-11
	1.08513520939204e-12	1.08513520939204e-12	0
	72.5
 63	1.14726273752314e-08	0	-1.08513338785152e-12
	72.4999999999989	2.859e-12	10
	1.08513338785152e-12	7.25000586528315e-11	-7.54726868377205e-11
	1.08513338785152e-12	1.08513338785152e-12	0
	72.5
 64	1.16726273752314e-08	0	-1.08513084366434e-12
	72.4999999999989	2.859e-12	10
	1.08513084366434e-12	7.24998886703007e-11	-7.52453131622773e-11
	1.08513084366434e-12	1.08513084366434e-12	0
	72.5
 65	1.18726273752314e-08	0	-1.08513055180284e-12
	72.4999999999989	2.859e-12	10
	1.08513055180284e-12	7.24998691704164e-11	-7.54726868377205e-11
	1.08513055180284e-12	1.08513055180284e-12	0
	72.5
 66	1.20726273752314e-08	0	-1.08513251088329e-12
	72.4999999999989	2.859e-12	10
	1.08513251088329e-12	7.2500000060728e-11	-7.52453131622773e-11
	1.08513251088329e-12	1.08513251088329e-12	0
	72.5
 67	1.22726273752314e-08	0	-1.08513418146738e-12
	72.4999999999989	2.859e-12	10
	1.08513418146738e-12	7.25001116759871e-11	-7.54726868377205e-11
	1.08513418146738e-12	1.08513418146738e-12	0
	72.5
 68	1.24726273752314e-08	0	-1.0851337220667e-12
	72.4999999999989	2.859e-12	10
	1.0851337220667e-12	7.25000809824551e-11	-7.52453131622773e-11
	1.0851337220667e-12	1.0851337220667e-12	0
	72.5
 69	1.26726273752314e-08	0	-1.0851319632682e-12
	72.4999999999989	2.859e-12	10
	1.0851319632682e-12	7.24999634734044e-11	-7.54726868377205e-11
	1.0851319632682e-12	1.0851319632682e-12	0
	72.5
 70	1.28726273752314e-08	0	-1.0851310790372e-12
	72.4999999999989	2.859e-12	10
	1.0851310790372e-12	7.24999043960597e-11	-7.52453131622773e-11
	1.0851310790372e-12	1.0851310790372e-12	0
	72.5
 71	1.30726273752314e-08	0	-1.08513193813879e-12
	72.4999999999989	2.859e-12	10
	1.08513193813879e-12	7.24999617944557e-11	-7.54726868377205e-11
	1.08513193813879e-12	1.08513193813879e-12	0
	72.5
 72	1.32726273752314e-08	0	-1.08513331600246e-12
	72.4999999999989	2.859e-12	10
	1.08513331600246e-12	7.25000538524438e-11	-7.52453131622773e-11
	1.08513331600246e-12	1.08513331600246e-12	0
	72.5
 73	1.34726273752314e-08	0	-1.08513358276918e-12
	72.4999999999989	2.859e-12	10
	1.08513358276918e-12	7.25000716756932e-11	-7.54726868377205e-11
	1.08513358276918e-12	1.08513358276918e-12	0
	72.5
 74	1.36726273752314e-08	0	-1.08513260066036e-12
	72.4999999999989	2.859e-12	10
	1.08513260066036e-12	7.25000060589238e-11	-7.52453131622773e-11
	1.08513260066036e-12	1.08513260066036e-12	0
	72.5
 75	1.38726273752314e-08	0	-1.08513166039961e-12
	72.4999999999989	2.859e-12	10
	1.08513166039961e-12	7.2499943238113e-11	-7.54726868377205e-11
	1.08513166039961e-12	1.08513166039961e-12	0
	72.5
 76	1.40726273752314e-08	0	-1.08513181612418e-12
	72.4999999999989	2.859e-12	10
	1.08513181612418e-12	7.24999536424009e-11	-7.52453131622773e-11
	1.08513181612418e-12	1.08513181612418e-12	0
	72.5
 77	1.42726273752314e-08	0	-1.085132731411e-12
	72.4999999999989	2.859e-12	10
	1.085132731411e-12	7.2500014794651e-11	-7.54726868377205e-11
	1.085132731411e-12	1.085132731411e-12	0
	72.5
 78	1.44726273752314e-08	0	-1.08513326268807e-12
	72.4999999999989	2.859e-12	10
	1.08513326268807e-12	7.25000502903966e-11	-7.52453131622773e-11
	1.08513326268807e-12	1.08513326268807e-12	0
	72.5
 79	1.46726273752314e-08	0	-1.08513286721321e-12
	72.4999999999989	2.859e-12	10
	1.08513286721321e-12	7.25000238678844e-11	-7.54726868377205e-11
	1.08513286721321e-12	1.08513286721321e-12	0
	72.5
 80	1.48726273752314e-08	0	-1.08513212692931e-12
	72.4999999999989	2.859e-12	10
	1.08513212692931e-12	7.24999744079497e-11	-7.52453131622773e-11
	1.08513212692931e-12	1.08513212692931e-12	0
	72.5
 81	1.50726273752314e-08	0	-1.08513192720807e-12
	72.4999999999989	2.859e-12	10
	1.08513192720807e-12	7.24999610641512e-11	-7.54726868377205e-11
	1.08513192720807e-12	1.08513192720807e-12	0
	72.5
 82	1.52726273752314e-08	0	-1.08513241394318e-12
	72.4999999999989	2.859e-12	10
	1.08513241394318e-12	7.24999935839539e-11	-7.52453131622773e-11
	1.08513241394318e-12	1.08513241394318e-12	0
	72.5
 83	1.54726273752314e-08	0	-1.08513293754304e-12
	72.4999999999989	2.859e-12	10
	1.08513293754304e-12	7.25000285667688e-11	-7.54726868377205e-11
	1.08513293754304e-12	1.08513293754304e-12	0
	72.5
 84	1.56726273752314e-08	0	-1.08513290216483e-12
	72.4999999999989	2.859e-12	10
	1.08513290216483e-12	7.25000262030756e-11	-7.52453131622773e-11
	1.08513290216483e-12	1.08513290216483e-12	0
	72.5
 85	1.58726273752314e-08	0	-1.0851324297252e-12
	72.4999999999989	2.859e-12	10
	1.0851324297252e-12	7.2499994638384e-11	-7.54726868377205e-11
	1.0851324297252e-12	1.0851324297252e-12	0
	72.5
 86	1.60726273752314e-08	0	-1.08513211710013e-12
	72.4999999999989	2.859e-12	10
	1.08513211710013e-12	7.24999737512413e-11	-7.52453131622773e-11
	1.08513211710013e-12	1.08513211710013e-12	0
	72.5
 87	1.62726273752314e-08	0	-1.08513229336822e-12
	72.4999999999989	2.859e-12	10
	1.08513229336822e-12	7.24999855280855e-11	-7.54726868377205e-11
	1.08513229336822e-12	1.08513229336822e-12	0
	72.5
 88	1.64726273752314e-08	0	-1.08513268802345e-12
	72.4999999999989	2.859e-12	10
	1.08513268802345e-12	7.25000118958371e-11	-7.52453131622773e-11
	1.08513268802345e-12	1.08513268802345e-12	0
	72.5
 89	1.66726273752314e-08	0	-1.08513282399041e-12
	72.4999999999989	2.859e-12	10
	1.08513282399041e-12	7.25000209800775e-11	-7.54726868377205e-11
	1.08513282399041e-12	1.08513282399041e-12	0
	72.5
 90	1.68726273752314e-08	0	-1.08513258590609e-12
	72.4999999999989	2.859e-12	10
	1.08513258590609e-12	7.25000050731599e-11	-7.52453131622773e-11
	1.08513258590609e-12	1.08513258590609e-12	0
	72.5
 91	1.70726273752314e-08	0	-1.08513229713157e-12
	72.4999999999989	2.859e-12	10
	1.08513229713157e-12	7.2499985779523e-11	-7.54726868377205e-11
	1.08513229713157e-12	1.08513229713157e-12	0
	72.5
 92	1.72726273752314e-08	0	-1.08513229073937e-12
	72.4999999999989	2.859e-12	10
	1.08513229073937e-12	7.24999853524466e-11	-7.52453131622773e-11
	1.08513229073937e-12	1.08513229073937e-12	0
	72.5
 93	1.74726273752314e-08	0	-1.08513253250171e-12
	72.4999999999989	2.859e-12	10
	1.08513253250171e-12	7.25000015051003e-11	-7.54726868377205e-11
	1.08513253250171e-12	1.08513253250171e-12	0
	72.5
 94	1.76726273752314e-08	0	-1.08513271338371e-12
	72.4999999999989	2.859e-12	10
	1.08513271338371e-12	7.25000135902096e-11	-7.52453131622773e-11
	1.08513271338371e-12	1.08513271338371e-12	0
	72.5
 95	1.78726273752314e-08	0	-1.08513263834854e-12
	72.4999999999989	2.859e-12	10
	1.08513263834854e-12	7.25000085769513e-11	-7.54726868377205e-11
	1.08513263834854e-12	1.08513263834854e-12	0
	72.5
 96	1.80726273752314e-08	0	-1.08513242956153e-12
	72.4999999999989	2.859e-12	10
	1.08513242956153e-12	7.24999946274487e-11	-7.52453131622773e-11
	1.08513242956153e-12	1.08513242956153e-12	0
	72.5
 97	1.82726273752314e-08	0	-1.08513234208608e-12
	72.4999999999989	2.859e-12	10
	1.08513234208608e-12	7.24999887830288e-11	-7.54726868377205e-11
	1.08513234208608e-12	1.08513234208608e-12	0
	72.5
 98	1.84726273752314e-08	0	-1.08513245676235e-12
	72.4999999999989	2.859e-12	10
	1.08513245676235e-12	7.24999964447931e-11	-7.52453131622773e-11
	1.08513245676235e-12	1.08513245676235e-12	0
	72.5
 99	1.86726273752314e-08	0	-1.0851326146134e-12
	72.4999999999989	2.859e-12	10
	1.0851326146134e-12	7.25000069911562e-11	-7.54726868377205e-11
	1.0851326146134e-12	1.0851326146134e-12	0
	72.5
 100	1.88726273752314e-08	0	-1.08513263130437e-12
	72.4999999999989	2.859e-12	10
	1.08513263130437e-12	7.2500008106315e-11	-7.52453131622773e-11
	1.08513263130437e-12	1.08513263130437e-12	0
	72.5
 101	1.90726273752314e-08	0	-1.08513250872719e-12
	72.4999999999989	2.859e-12	10
	1.08513250872719e-12	7.24999999166743e-11	-7.54726868377205e-11
	1.08513250872719e-12	1.08513250872719e-12	0
	72.5
 102	1.92726273752314e-08	0	-1.08513240554086e-12
	72.4999999999989	2.859e-12	10
	1.08513240554086e-12	7.24999930225772e-11	-7.52453131622773e-11
	1.08513240554086e-12	1.08513240554086e-12	0
	72.5
 103	1.94726273752314e-08	0	-1.08513243525731e-12
	72.4999999999989	2.859e-12	10
	1.08513243525731e-12	7.2499995007996e-11	-7.54726868377205e-11
	1.08513243525731e-12	1.08513243525731e-12	0
	72.5
 104	1.96726273752314e-08	0	-1.08513254486527e-12
	72.4999999999989	2.859e-12	10
	1.08513254486527e-12	7.25000023311361e-11	-7.52453131622773e-11
	1.08513254486527e-12	1.08513254486527e-12	0
	72.5
 105	1.98726273752314e-08	0	-1.08513259904313e-12
	72.4999999999989	2.859e-12	10
	1.08513259904313e-12	7.25000059508737e-11	-7.54726868377205e-11
	1.08513259904313e-12	1.08513259904313e-12	0
	72.5
 106	2.00726273752314e-08	0	-1.08513254483128e-12
	72.4999999999989	2.859e-12	10
	1.08513254483128e-12	7.25000023288649e-11	-7.52453131622773e-11
	1.08513254483128e-12	1.08513254483128e-12	0
	72.5
 107	2.02726273752314e-08	0	-1.08513245926606e-12
	72.4999999999989	2.859e-12	10
	1.08513245926606e-12	7.24999966120714e-11	-7.54726868377205e-11
	1.08513245926606e-12	1.08513245926606e-12	0
	72.5
 108	2.04726273752314e-08	0	-1.08513244343514e-12
	72.4999999999989	2.859e-12	10
	1.08513244343514e-12	7.24999955543741e-11	-7.52453131622773e-11
	1.08513244343514e-12	1.08513244343514e-12	0
	72.5
 109	2.06726273752314e-08	0	-1.08513250495754e-12
	72.4999999999989	2.859e-12	10
	1.08513250495754e-12	7.24999996648163e-11	-7.54726868377205e-11
	1.08513250495754e-12	1.08513250495754e-12	0
	72.5
 110	2.08726273752314e-08	0	-1.08513256310742e-12
	72.4999999999989	2.859e-12	10
	1.08513256310742e-12	7.25000035499324e-11	-7.52453131622773e-11
	1.08513256310742e-12	1.08513256310742e-12	0
	72.5
 111	2.10726273752314e-08	0	-1.08513255280737e-12
	72.4999999999989	2.859e-12	10
	1.08513255280737e-12	7.25000028617645e-11	-7.54726868377205e-11
	1.08513255280737e-12	1.08513255280737e-12	0
	72.5
 112	2.12726273752314e-08	0	-1.0851324957163e-12
	72.4999999999989	2.859e-12	10
	1.0851324957163e-12	7.24999990473891e-11	-7.52453131622773e-11
	1.0851324957163e-12	1.0851324957163e-12	0
	72.5
 113	2.14726273752314e-08	0	-1.08513246307848e-12
	72.4999999999989	2.859e-12	10
	1.08513246307848e-12	7.24999968667876e-11	-7.54726868377205e-11
	1.08513246307848e-12	1.08513246307848e-12	0
	72.5
 114	2.16726273752314e-08	0	-1.08513248810951e-12
	72.4999999999989	2.859e-12	10
	1.08513248810951e-12	7.24999985391638e-11	-7.52453131622773e-11
	1.08513248810951e-12	1.08513248810951e-12	0
	72.5
 115	2.18726273752314e-08	0	-1.0851325341212e-12
	72.4999999999989	2.859e-12	10
	1.0851325341212e-12	7.25000016133017e-11	-7.54726868377205e-11
	1.0851325341212e-12	1.0851325341212e-12	0
	72.5
 116	2.20726273752314e-08	0	-1.08513254615017e-12
	72.4999999999989	2.859e-12	10
	1.08513254615017e-12	7.25000024169828e-11	-7.52453131622773e-11
	1.08513254615017e-12	1.08513254615017e-12	0
	72.5
 117	2.22726273752314e-08	0	-1.08513251561857e-12
	72.4999999999989	2.859e-12	10
	1.08513251561857e-12	7.2500000377102e-11	-7.54726868377205e-11
	1.08513251561857e-12	1.08513251561857e-12	0
	72.5
 118	2.24726273752314e-08	0	-1.08513248320033e-12
	72.4999999999989	2.859e-12	10
	1.08513248320033e-12	7.24999982111706e-11	-7.52453131622773e-11
	1.08513248320033e-12	1.08513248320033e-12	0
	72.5
 119	2.26726273752314e-08	0	-1.08513248572847e-12
	72.4999999999989	2.859e-12	10
	1.08513248572847e-12	7.24999983800811e-11	-7.54726868377205e-11
	1.08513248572847e-12	1.08513248572847e-12	0
	72.5
 120	2.28726273752314e-08	0	-1.08513251522423e-12
	72.4999999999989	2.859e-12	10
	1.08513251522423e-12	7.25000003507554e-11	-7.52453131622773e-11
	1.08513251522423e-12	1.08513251522423e-12	0
	72.5
 121	2.30726273752314e-08	0	-1.0851325344698e-12
	72.4999999999989	2.859e-12	10
	1.0851325344698e-12	7.25000016365925e-11	-7.54726868377205e-11
	1.0851325344698e-12	1.0851325344698e-12	0
	72.5
 122	2.32726273752314e-08	0	-1.08513252326713e-12
	72.4999999999989	2.859e-12	10
	1.08513252326713e-12	7.25000008881188e-11	-7.52453131622773e-11
	1.08513252326713e-12	1.08513252326713e-12	0
	72.5
 123	2.34726273752314e-08	0	-1.08513249871671e-12
	72.4999999999989	2.859e-12	10
	1.08513249871671e-12	7.24999992478533e-11	-7.54726868377205e-11
	1.08513249871671e-12	1.08513249871671e-12	0
	72.5
 124	2.36726273752314e-08	0	-1.08513249046124e-12
	72.4999999999989	2.859e-12	10
	1.08513249046124e-12	7.24999986962877e-11	-7.52453131622773e-11
	1.08513249046124e-12	1.08513249046124e-12	0
	72.5
 125	2.38726273752314e-08	0	-1.08513250541887e-12
	72.4999999999989	2.859e-12	10
	1.08513250541887e-12	7.24999996956383e-11	-7.54726868377205e-11
	1.08513250541887e-12	1.08513250541887e-12	0
	72.5
 126	2.40726273752314e-08	0	-1.08513252331652e-12
	72.4999999999989	2.859e-12	10
	1.08513252331652e-12	7.25000008914185e-11	-7.52453131622773e-11
	1.08513252331652e-12	1.08513252331652e-12	0
	72.5
 127	2.42726273752314e-08	0	-1.08513252354064e-12
	72.4999999999989	2.859e-12	10
	1.08513252354064e-12	7.25000009063923e-11	-7.54726868377205e-11
	1.08513252354064e-12	1.08513252354064e-12	0
	72.5
 128	2.44726273752314e-08	0	-1.08513250843186e-12
	72.4999999999989	2.859e-12	10
	1.08513250843186e-12	7.24999998969425e-11	-7.52453131622773e-11
	1.08513250843186e-12	1.08513250843186e-12	0
	72.5
 129	2.46726273752314e-08	0	-1.08513249727738e-12
	72.4999999999989	2.859e-12	10
	1.08513249727738e-12	7.24999991516881e-11	-7.54726868377205e-11
	1.08513249727738e-12	1.08513249727738e-12	0
	72.5
 130	2.48726273752314e-08	0	-1.08513250207522e-12
	72.4999999999989	2.859e-12	10
	1.08513250207522e-12	7.24999994722425e-11	-7.52453131622773e-11
	1.08513250207522e-12	1.08513250207522e-12	0
	72.5
 131	2.50726273752314e-08	0	-1.08513251507435e-12
	72.4999999999989	2.859e-12	10
	1.08513251507435e-12	7.25000003407414e-11	-7.54726868377205e-11
	1.08513251507435e-12	1.08513251507435e-12	0
	72.5
 132	2.52726273752314e-08	0	-1.08513252041296e-12
	72.4999999999989	2.859e-12	10
	1.08513252041296e-12	7.25000006974251e-11	-7.52453131622773e-11
	1.08513252041296e-12	1.08513252041296e-12	0
	72.5
 133	2.54726273752314e-08	0	-1.08513251319509e-12
	72.4999999999989	2.859e-12	10
	1.08513251319509e-12	7.2500000215184e-11	-7.54726868377205e-11
	1.08513251319509e-12	1.08513251319509e-12	0
	72.5
 134	2.56726273752314e-08	0	-1.08513250340241e-12
	72.4999999999989	2.859e-12	10
	1.08513250340241e-12	7.24999995609148e-11	-7.52453131622773e-11
	1.08513250340241e-12	1.08513250340241e-12	0
	72.5
 135	2.58726273752314e-08	0	-1.08513250245539e-12
	72.4999999999989	2.859e-12	10
	1.08513250245539e-12	7.24999994976421e-11	-7.54726868377205e-11
	1.08513250245539e-12	1.08513250245539e-12	0
	72.5
 136	2.60726273752314e-08	0	-1.08513251012394e-12
	72.4999999999989	2.859e-12	10
	1.08513251012394e-12	7.25000000099939e-11	-7.52453131622773e-11
	1.08513251012394e-12	1.08513251012394e-12	0
	72.5
 137	2.62726273752314e-08	0	-1.08513251649645e-12
	72.4999999999989	2.859e-12	10
	1.08513251649645e-12	7.25000004357552e-11	-7.54726868377205e-11
	1.08513251649645e-12	1.08513251649645e-12	0
	72.5
 138	2.64726273752313e-08	0	-1.0851325145772e-12
	72.4999999999989	2.859e-12	10
	1.0851325145772e-12	7.25000003075256e-11	-7.52453131622773e-11
	1.0851325145772e-12	1.0851325145772e-12	0
	72.5
 139	2.66726273752313e-08	0	-1.08513250774711e-12
	72.4999999999989	2.859e-12	10
	1.08513250774711e-12	7.2499999851193e-11	-7.54726868377205e-11
	1.08513250774711e-12	1.08513250774711e-12	0
	72.5
 140	2.68726273752313e-08	0	-1.08513250442869e-12
	72.4999999999989	2.859e-12	10
	1.08513250442869e-12	7.24999996294823e-11	-7.52453131622773e-11
	1.08513250442869e-12	1.08513250442869e-12	0
	72.5
 141	2.70726273752313e-08	0	-1.08513250784863e-12
	72.4999999999989	2.859e-12	10
	1.08513250784863e-12	7.24999998579761e-11	-7.54726868377205e-11
	1.08513250784863e-12	1.08513250784863e-12	0
	72.5
 142	2.72238136876157e-08	0	-1.0851325122688e-12
	72.4999999999989	2.859e-12	10
	1.0851325122688e-12	7.25000001532969e-11	-7.52453131622773e-11
	1.0851325122688e-12	1.0851325122688e-12	0
	72.5
 143	2.7375e-08	0	-1.08513251383403e-12
	72.4999999999989	2.859e-12	10
	1.08513251383403e-12	7.25000002578732e-11	-7.54726868377205e-11
	1.08513251383403e-12	1.08513251383403e-12	0
	72.5
 144	2.74240854257063e-08	0	0.0240619164647757
	72.5240619164648	2.859e-12	9.77863478793337
	0.0240619164647757	1.55296351166953	-7.53830619164648e-11
	-0.0240619164647757	-0.0240619164647757	0
	72.5
 145	2.74937458713604e-08	0	0.0473743907389471
	72.547374390739	2.859e-12	9.45364503393715
	0.0473743907389471	2.90232086449054	-7.54063743907389e-11
	-0.0473743907389471	-0.0473743907389471	0
	72.5
 146	2.7557539891724e-08	0	0.0563154707703461
	72.5563154707703	2.859e-12	9.14361601215056
	0.0563154707703461	3.27768727919767	-7.54153154707703e-11
	-0.0563154707703461	-0.0563154707703461	0
	72.5
 147	2.76851279324512e-08	0	0.0663316514035966
	72.5663316514036	2.859e-12	8.51569198914782
	0.0663316514035966	3.45199742378761	-7.54253316514036e-11
	-0.0663316514035966	-0.0663316514035966	0
	72.5
 148	2.78618715739097e-08	0	0.0779464431880569
	72.5779464431881	2.859e-12	7.64358857363969
	0.0779464431880569	3.3903710619437	-7.54369464431881e-11
	-0.0779464431880569	-0.0779464431880569	0
	72.5
 149	2.80618715739097e-08	0	0.0957016679359721
	72.595701667936	2.859e-12	6.66134379838762
	0.0957016679359721	3.23939362947906	-7.5454701667936e-11
	-0.0957016679359721	-0.0957016679359721	0
	72.5
 150	2.82618715739097e-08	0	0.122494228606658
	72.6224942286067	2.859e-12	5.68813635905831
	0.122494228606658	2.96994222789132	-7.54814942286067e-11
	-0.122494228606658	-0.122494228606658	0
	72.5
 151	2.84618715739097e-08	0	0.166044400972016