Title: // ============================================================================
Date: 8:30:12 PM, Sat Jun 27, 2026
Plotname: Transient Analysis `tran': time = (0 s -> 500 ns)
Flags: real
No. Variables:        6
No. Points:     1004
Variables:	0	time	s
		1	L1:i	A plot=0 grid=0
		2	V1:i	A plot=0 grid=0
		3	in	V plot=0 grid=0
		4	lc	V plot=0 grid=0
		5	ll	V plot=0 grid=0
Values:
 0	0	0	0
	0	0	0
 1	6.25e-11	0.000130135322571906	-0.000130135322571889
	0.625	0.624668154927442	1.73052290654008e-05
 2	1.46694804788686e-10	0.000541412277167715	-0.000541412277167715
	1.46694804788686	1.46556744658008	0.000114292677972288
 3	3.15084414366058e-10	0.00183550127655358	-0.00183550127655358
	3.15084414366058	3.14616361540537	0.000540087938940806
 4	6.51863633520802e-10	0.00724748363327369	-0.00724748363327369
	6.51863633520802	6.50015525194317	0.00379430130652167
 5	1e-09	0.0167867790860721	-0.0167867790860721
	10	9.95719371333052	0.0126955788534573
 6	1.5e-09	0.0332315771560251	-0.0332315771560249
	10	9.91525947825214	0.0480483205088034
 7	2e-09	0.0496047276181242	-0.0496047276181239
	10	9.87350794457378	0.0921101847503722
 8	2.5e-09	0.0658204732288756	-0.0658204732288756
	10	9.83215779326637	0.153506568179627
 9	3e-09	0.0818508064244765	-0.0818508064244765
	10	9.79128044361759	0.23205512118673
 10	3.5e-09	0.0976681667335036	-0.0976681667335036
	10	9.75094617482956	0.327543936696294
 11	4e-09	0.113245487614721	-0.113245487614721
	10	9.71122400658246	0.439732050711307
 12	4.5e-09	0.128556242222048	-0.128556242222048
	10	9.67218158233378	0.568349992113844
 13	5e-09	0.143574488020319	-0.143574488020319
	10	9.63388505554819	0.713100380540635
 14	5.5e-09	0.15827491017782	-0.15827491017782
	10	9.59639897904656	0.87365857107156
 15	6e-09	0.172632863664071	-0.172632863664071
	10	9.55978619765662	1.04967334439172
 16	6.5e-09	0.186624413983918	-0.186624413983918
	10	9.52410774434101	1.24076764101299
 17	7e-09	0.20022637648169	-0.20022637648169
	10	9.48942273997169	1.44653933806916
 18	7.5e-09	0.213416354152005	-0.213416354152005
	10	9.45578829691239	1.66656206712964
 19	8e-09	0.226172773896718	-0.226172773896718
	10	9.42325942656337	1.90038607141087
 20	8.5e-09	0.23847492117048	-0.23847492117048
	10	9.39188895101528	2.14753910070193
 21	9e-09	0.250302972960532	-0.250302972960532
	10	9.36172741895064	2.40752734226098
 22	9.5e-09	0.261638029049457	-0.261638029049457
	10	9.33282302592388	2.67983638588332
 23	1e-08	0.272462141512947	-0.272462141512947
	10	9.30522153914199	2.96393222128885
 24	1.05e-08	0.282758342407902	-0.282758342407902
	10	9.27896622685985	3.2592622659276
 25	1.1e-08	0.292510669609612	-0.292510669609612
	10	9.25409779249549	3.56525642125606
 26	1.15e-08	0.301704190760197	-0.301704190760197
	10	9.2306543135615	3.88132815549532
 27	1.2e-08	0.310325025293999	-0.310325025293999
	10	9.2086711855003	4.2068756108433
 28	1.25e-08	0.31836036450915	-0.31836036450915
	10	9.18818107050167	4.54128273307902
 29	1.3e-08	0.325798489658139	-0.325798489658139
	10	9.16921385137175	4.88392042146587
 30	1.35e-08	0.332628788033813	-0.332628788033813
	10	9.15179659051378	5.23414769683393
 31	1.4e-08	0.338841767030898	-0.338841767030898
	10	9.13595349407121	5.59131288569814
 32	1.45e-08	0.344429066166787	-0.344429066166787
	10	9.12170588127469	5.9547548182501
 33	1.5e-08	0.349383467049013	-0.349383467049013
	10	9.10907215902502	6.32380403804573
 34	1.55e-08	0.353698901280539	-0.353698901280539
	10	9.09806780173463	6.69778402119975
 35	1.6e-08	0.35737045629763	-0.35737045629763
	10	9.08870533644104	7.07601240289027
 36	1.65e-08	0.360394379138813	-0.360394379138813
	10	9.08099433319603	7.45780220897348
 37	1.7e-08	0.362768078147035	-0.362768078147035
	10	9.07494140072506	7.84246309050851
 38	1.75e-08	0.36449012261083	-0.36449012261083
	10	9.07055018734238	8.22930255899674
 39	1.8e-08	0.365560240353885	-0.365560240353885
	10	9.06782138709759	8.61762722014818
 40	1.85e-08	0.365979313285997	-0.365979313285997
	10	9.06675275112071	9.00674400399918
 41	1.9e-08	0.365749370931981	-0.365749370931981
	10	9.06733910412345	9.39596138922151
 42	1.95e-08	0.364873581958562	-0.364873581958562
	10	9.06957236600567	9.78459061948244
 43	2e-08	0.363356243722757	-0.363356243722757
	10	9.07344157850697	10.1719469097385
 44	2.05e-08	0.36120276986867	-0.36120276986867
	10	9.07893293683489	10.5573506403722
 45	2.1e-08	0.358419676002907	-0.358419676002907
	10	9.08602982619259	10.9401285371124
 46	2.15e-08	0.355014563482153	-0.355014563482153
	10	9.09471286312051	11.3196148347108
 47	2.2e-08	0.350996101349597	-0.350996101349597
	10	9.10495994155853	11.6951524223873
 48	2.25e-08	0.346374006460034	-0.346374006460034
	10	9.11674628352691	12.0660939690946
 49	2.3e-08	0.341159021836507	-0.341159021836507
	10	9.13004449431691	12.4318030266991
 50	2.35e-08	0.335362893304273	-0.335362893304273
	10	9.1448246220741	12.7916551092208
 51	2.4e-08	0.328998344450775	-0.328998344450775
	10	9.16105422165052	13.1450387463245
 52	2.45e-08	0.322079049962996	-0.322079049962996
	10	9.17869842259436	13.4913565093106
 53	2.5e-08	0.314619607396283	-0.314619607396283
	10	9.19772000113948	13.830026007906
 54	2.55e-08	0.306635507431214	-0.306635507431214
	10	9.21807945605041	14.1604808562185
 55	2.6e-08	0.298143102677569	-0.298143102677569
	10	9.2397350881722	14.4821716062763
 56	2.65e-08	0.289159575086741	-0.289159575086741
	10	9.26264308352881	14.7945666476403
 57	2.7e-08	0.279702902036144	-0.279702902036144
	10	9.28675759980783	15.0971530716418
 58	2.75e-08	0.269791821151252	-0.269791821151252
	10	9.31203085606431	15.3894374988692
 59	2.8e-08	0.259445793932852	-0.259445793932852
	10	9.33841322547123	15.6709468685948
 60	2.85e-08	0.248684968258923	-0.248684968258923
	10	9.36585333093975	15.9412291889096
 61	2.9e-08	0.237530139832233	-0.237530139832233
	10	9.39429814342781	16.1998542464049
 62	2.95e-08	0.226002712646342	-0.226002712646342
	10	9.42369308275183	16.446414274319
 63	3e-08	0.214124658544084	-0.214124658544084
	10	9.45398212071259	16.6805245781437
 64	3.05e-08	0.201918475943919	-0.201918475943919
	10	9.48510788634301	16.901824117765
 65	3.1e-08	0.189407147810693	-0.189407147810693
	10	9.51701177308273	17.109976045294
 66	3.15e-08	0.176614098948341	-0.176614098948341
	10	9.54963404768173	17.3046681978254
 67	3.2e-08	0.163563152692949	-0.163563152692949
	10	9.58291396063298	17.4856135444431
 68	3.25e-08	0.150278487085321	-0.150278487085321
	10	9.61678985793243	17.6525505868784
 69	3.3e-08	0.136784590602765	-0.136784590602765
	10	9.65119929396295	17.8052437133082
 70	3.35e-08	0.123106217530267	-0.123106217530267
	10	9.68607914529782	17.9434835048683
 71	3.4e-08	0.109268343051519	-0.109268343051519
	10	9.72136572521863	18.0670869945395
 72	3.45e-08	0.0952961181404004	-0.0952961181404004
	10	9.75699489874198	18.1758978781522
 73	3.5e-08	0.0812148243335455	-0.0812148243335455
	10	9.79290219794946	18.2697866773405
 74	3.55e-08	0.0670498284644921	-0.0670498284644921
	10	9.82902293741554	18.3486508543607
 75	3.6e-08	0.0528265374396146	-0.0528265374396146
	10	9.86529232952898	18.4124148787778
 76	3.65e-08	0.0385703531356518	-0.0385703531356518
	10	9.90164559950409	18.461030246105
 77	3.7e-08	0.0243066274980709	-0.0243066274980709
	10	9.93801809987992	18.4944754485698
 78	3.75e-08	0.0100606179188237	-0.0100606179188237
	10	9.974345424307	18.5127558982596
 79	3.8e-08	-0.00414255702878166	0.00414255702878166
	10	10.0105635204234	18.5159038029884
 80	3.85e-08	-0.0182779614213301	0.0182779614213301
	10	10.0466088016244	18.5039779953021
 81	3.9e-08	-0.032320885307001	0.032320885307001
	10	10.0824182575329	18.4770637151275
 82	3.95e-08	-0.046246887443276	0.046246887443276
	10	10.1179295629804	18.4352723466433
 83	4e-08	-0.060031837377558	0.060031837377558
	10	10.1530811853128	18.3787411100365
 84	4.05e-08	-0.0736519567990771	0.0736519567990771
	10	10.1878124898376	18.3076327088787
 85	4.1e-08	-0.0870838600920553	0.0870838600920553
	10	10.2220638432347	18.2221349339366
 86	4.15e-08	-0.100304594021811	0.100304594021811
	10	10.2557767147556	18.1224602243016
 87	4.2e-08	-0.113291676487307	0.113291676487307
	10	10.2888937750426	18.0088451867967
 88	4.25e-08	-0.126023134275584	0.126023134275584
	10	10.3213589924027	17.8815500746888
 89	4.3e-08	-0.138477539755558	0.138477539755558
	10	10.3531177263767	17.7408582267999
 90	4.35e-08	-0.1506340464508	0.1506340464508
	10	10.3841168184495	17.5870754681795
 91	4.4e-08	-0.162472423433164	0.162472423433164
	10	10.4143046797546	17.4205294735604
 92	4.45e-08	-0.173973088481449	0.173973088481449
	10	10.4436313756277	17.2415690948824
 93	4.5e-08	-0.185117139951715	0.185117139951715
	10	10.4720487068769	17.0505636542264
 94	4.55e-08	-0.195886387308379	0.195886387308379
	10	10.4995102876364	16.8479022035562
 95	4.6e-08	-0.206263380267778	0.206263380267778
	10	10.5259716196828	16.6339927527178
 96	4.65e-08	-0.216231436508586	0.216231436508586
	10	10.5513901630969	16.4092614671985
 97	4.7e-08	-0.225774667906158	0.225774667906158
	10	10.5757254031607	16.1741518371906
 98	4.75e-08	-0.234878005250711	0.234878005250711
	10	10.5989389133893	15.929123819554
 99	4.8e-08	-0.243527221412048	0.243527221412048
	10	10.6209944146007	15.6746529543078
 100	4.85e-08	-0.251708952916508	0.251708952916508
	10	10.6418578299371	15.4112294573246
 101	4.89999999999999e-08	-0.259410719904702	0.259410719904702
	10	10.661497335757	15.1393572909303
 102	4.94999999999999e-08	-0.266620944441663	0.266620944441663
	10	10.6798834083262	14.8595532141503
 103	4.99999999999999e-08	-0.273328967154022	0.273328967154022
	10	10.6969888662428	14.5723458143654
 104	5.04999999999999e-08	-0.279525062171907	0.279525062171907
	10	10.7127889085384	14.2782745221708
 105	5.09999999999999e-08	-0.285200450356365	0.285200450356365
	10	10.7272611484087	13.9778886112515
 106	5.14999999999999e-08	-0.290347310796205	0.290347310796205
	10	10.7403856425303	13.6717461851065
 107	5.19999999999999e-08	-0.294958790561289	0.294958790561289
	10	10.7521449159313	13.3604131524695
 108	5.24999999999999e-08	-0.299029012702456	0.299029012702456
	10	10.7625239823913	13.0444621932867
 109	5.29999999999999e-08	-0.302553082491381	0.302553082491381
	10	10.771510360353	12.7244717171197
 110	5.34999999999999e-08	-0.305527091896827	0.305527091896827
	10	10.7790940843369	12.4010248158494
 111	5.39999999999999e-08	-0.307948122296884	0.307948122296884
	10	10.7852677118571	12.0747082125549
 112	5.44999999999999e-08	-0.3098142454299	0.3098142454299
	10	10.7900263258462	11.7461112084449
 113	5.49999999999999e-08	-0.311124522589921	0.311124522589921
	10	10.7933675326043	11.415824629711
 114	5.54999999999999e-08	-0.311879002075532	0.311879002075532
	10	10.7952914552926	11.0844397761655
 115	5.59999999999999e-08	-0.312078714904044	0.312078714904044
	10	10.7958007230053	10.7525473735168
 116	5.64999999999999e-08	-0.311725668805992	0.311725668805992
	10	10.7949004554553	10.4207365311178
 117	5.69999999999999e-08	-0.310822840517873	0.310822840517873
	10	10.7925982433206	10.0895937070094
 118	5.74999999999999e-08	-0.309374166394016	0.309374166394016
	10	10.7889041243047	9.75970168205627
 119	5.79999999999999e-08	-0.307384531361312	0.307384531361312
	10	10.7838305549713	9.43163854495237
 120	5.84999999999999e-08	-0.304859756243418	0.304859756243418
	10	10.7773923784207	9.10597668984348
 121	5.89999999999999e-08	-0.301806583483775	0.301806583483775
	10	10.7696067878836	8.78328182828646
 122	5.94999999999999e-08	-0.298232661299503	0.298232661299503
	10	10.7604932863137	8.46411201723153
 123	5.99999999999999e-08	-0.29414652630088	0.29414652630088
	10	10.7500736420672	8.14901670467814
 124	6.04999999999999e-08	-0.289557584613675	0.289557584613675
	10	10.7383718407649	7.8385357946172
 125	6.09999999999999e-08	-0.284476091544079	0.284476091544079
	10	10.7254140334374	7.53319873283117
 126	6.14999999999999e-08	-0.27891312982841	0.27891312982841
	10	10.7112284810624	7.23352361507984
 127	6.19999999999999e-08	-0.272880586512079	0.272880586512079
	10	10.6958454956058	6.94001631915405
 128	6.24999999999999e-08	-0.26639112850453	0.26639112850453
	10	10.6792973776866	6.65316966223032
 129	6.29999999999999e-08	-0.259458176859038	0.259458176859038
	10	10.6616183509905	6.37346258490928
 130	6.34999999999999e-08	-0.252095879828252	0.252095879828252
	10	10.642844493562	6.1013593632671
 131	6.39999999999999e-08	-0.244319084748373	0.244319084748373
	10	10.6230136661084	5.83730885019443
 132	6.44999999999999e-08	-0.236143308806651	0.236143308806651
	10	10.602165437457	5.58174374723963
 133	6.49999999999999e-08	-0.227584708748661	0.227584708748661
	10	10.5803410073091	5.33507990811447
 134	6.54999999999999e-08	-0.218660049583447	0.218660049583447
	10	10.5575831264378	5.09771567495909
 135	6.59999999999999e-08	-0.209386672346131	0.209386672346131
	10	10.5339360144826	4.87003124840081
 136	6.64999999999999e-08	-0.199782460979019	0.199782460979019
	10	10.5094452754965	4.65238809237679
 137	6.69999999999999e-08	-0.189865808393526	0.189865808393526
	10	10.4841578114035	4.44512837462544
 138	6.74999999999999e-08	-0.179655581776421	0.179655581776421
	10	10.4581217335299	4.24857444368398
 139	6.79999999999999e-08	-0.169171087204966	0.169171087204966
	10	10.4313862723727	4.06302834316196
 140	6.84999999999999e-08	-0.158432033636465	0.158432033636465
	10	10.404001685773	3.88877136399099
 141	6.89999999999999e-08	-0.147458496338578	0.147458496338578
	10	10.3760191656634	3.72606363528086
 142	6.94999999999999e-08	-0.136270879827443	0.136270879827443
	10	10.34749074356	3.57514375434149
 143	6.99999999999999e-08	-0.124889880381247	0.124889880381247
	10	10.3184691949722	3.43622845635814
 144	7.04999999999999e-08	-0.113336448197357	0.113336448197357
	10	10.2890079429033	3.30951232413548
 145	7.09999999999999e-08	-0.101631749261436	0.101631749261436
	10	10.2591609606167	3.19516753825315
 146	7.14999999999999e-08	-0.0897971269972142	0.0897971269972142
	10	10.2289826738429	3.0933436679028
 147	7.19999999999999e-08	-0.0778540637656752	0.0778540637656752
	10	10.1985278626025	3.00416750260339
 148	7.24999999999998e-08	-0.0658241422823742	0.0658241422823742
	10	10.1678515628201	2.92774292491826
 149	7.29999999999998e-08	-0.0537290070214785	0.0537290070214785
	10	10.1370089679048	2.86415082422472
 150	7.34999999999998e-08	-0.0415903256748419	0.0415903256748419
	10	10.1060553304708	2.81344905151391
 151	7.39999999999998e-08	-0.0294297507340365	0.0294297507340365
	10	10.0750458643718	2.77567241512621
 152	7.44999999999998e-08	-0.0172688812627615	0.0172688812627615
	10	10.04403564722	2.75083271725557
 153	7.49999999999998e-08	-0.00512922492642486	0.00512922492642486
	10	10.0130795235624	2.73891883098473
 154	7.54999999999998e-08	0.00696783965504799	-0.00696783965504799
	10	9.98223200887963	2.73989681754251
 155	7.59999999999998e-08	0.0190011001659737	-0.0190011001659737
	10	9.95154719457677	2.75371008340475
 156	7.64999999999998e-08	0.0309495474010006	-0.0309495474010006
	10	9.92107865412745	2.78027957679144
 157	7.69999999999998e-08	0.0427924115553634	-0.0427924115553634
	10	9.89087935053382	2.81950402304483
 158	7.74999999999998e-08	0.0545091979373192	-0.0545091979373192
	10	9.86100154525984	2.87126019830689
 159	7.79999999999998e-08	0.0660797220420665	-0.0660797220420665
	10	9.83149670879273	2.93540324084912
 160	7.84999999999998e-08	0.0774841439278366	-0.0774841439278366
	10	9.80241543298402	3.01176699934375
 161	7.89999999999998e-08	0.0887030018363337	-0.0887030018363337
	10	9.77380734531735	3.10016441730341
 162	7.94999999999998e-08	0.0997172450012811	-0.0997172450012811
	10	9.74572102524673	3.20038795285533
 163	7.99999999999998e-08	0.110508265590508	-0.110508265590508
	10	9.71820392274421	3.31221003295735
 164	8.04999999999998e-08	0.121057929728774	-0.121057929728774
	10	9.69130227919163	3.4353835411059
 165	8.09999999999998e-08	0.131348607550381	-0.131348607550381
	10	9.66506105074653	3.56964233753099
 166	8.14999999999998e-08	0.141363202232552	-0.141363202232552
	10	9.63952383430699	3.71470181081978
 167	8.19999999999998e-08	0.151085177962569	-0.151085177962569
	10	9.61473279619545	3.87025945985974
 168	8.24999999999998e-08	0.160498586793754	-0.160498586793754
	10	9.59072860367593	4.03599550494289
 169	8.29999999999998e-08	0.169588094347511	-0.169588094347511
	10	9.56755035941385	4.21157352682654
 170	8.34999999999998e-08	0.178339004320912	-0.178339004320912
	10	9.54523553898168	4.39664113250123
 171	8.39999999999998e-08	0.186737281761539	-0.186737281761539
	10	9.52381993150808	4.59083064637487
 172	8.44999999999998e-08	0.194769575073693	-0.194769575073693
	10	9.50333758356208	4.79375982554255
 173	8.49999999999998e-08	0.20242323672243	-0.20242323672243
	10	9.4838207463578	5.00503259777452
 174	8.54999999999998e-08	0.20968634260437	-0.20968634260437
	10	9.46529982635886	5.22423982082069
 175	8.59999999999998e-08	0.216547710056678	-0.216547710056678
	10	9.44780333935547	5.45096006159785
 176	8.64999999999998e-08	0.222996914478174	-0.222996914478174
	10	9.43135786808066	5.68476039379724
 177	8.69999999999998e-08	0.229024304539087	-0.229024304539087
	10	9.41598802342533	5.92519721242344
 178	8.74999999999998e-08	0.234621015958546	-0.234621015958546
	10	9.40171640930571	6.17181706375196
 179	8.79999999999998e-08	0.239778983831557	-0.239778983831557
	10	9.38856359122953	6.42415748917223
 180	8.84999999999998e-08	0.244490953489824	-0.244490953489824
	10	9.37654806860095	6.68174788136445
 181	8.89999999999998e-08	0.248750489883454	-0.248750489883454
	10	9.36568625079719	6.94411035124385
 182	8.94999999999998e-08	0.252551985473245	-0.252551985473245
	10	9.35599243704323	7.21076060409316
 183	8.99999999999998e-08	0.255890666625944	-0.255890666625944
	10	9.34747880010384	7.48120882329486
 184	9.04999999999998e-08	0.258762598507523	-0.258762598507523
	10	9.34015537380582	7.75496056006798
 185	9.09999999999998e-08	0.261164688472234	-0.261164688472234
	10	9.3340300443958	8.0315176276104
 186	9.14999999999998e-08	0.263094687947824	-0.263094687947824
	10	9.32910854573305	8.3103789980466
 187	9.19999999999998e-08	0.264551192819995	-0.264551192819995
	10	9.32539445830901	8.59104170058267
 188	9.24999999999998e-08	0.265533642321811	-0.265533642321811
	10	9.32288921207938	8.87300171927512
 189	9.29999999999998e-08	0.266042316436375	-0.266042316436375
	10	9.32159209308724	9.15575488882734
 190	9.34999999999998e-08	0.266078331823699	-0.266078331823699
	10	9.32150025384957	9.43879778683802
 191	9.39999999999998e-08	0.265643636285253	-0.265643636285253
	10	9.32260872747261	9.72162862093852
 192	9.44999999999998e-08	0.2647410017822	-0.2647410017822
	10	9.32491044545539	10.0037481092723
 193	9.49999999999998e-08	0.263374016025826	-0.263374016025826
	10	9.32839625913414	10.2846603527872
 194	9.54999999999998e-08	0.26154707266111	-0.26154707266111
	10	9.33305496471417	10.5638736978334
 195	9.59999999999997e-08	0.259265360066778	-0.259265360066778
	10	9.33887333182972	10.8409015875823
 196	9.64999999999997e-08	0.256534848797542	-0.256534848797542
	10	9.34583613556627	11.115263400808
 197	9.69999999999997e-08	0.253362277696512	-0.253362277696512
	10	9.35392619187389	11.3864852766027
 198	9.74999999999997e-08	0.249755138707992	-0.249755138707992
	10	9.36312439629462	11.6541009236264
 199	9.79999999999997e-08	0.245721660423052	-0.245721660423052
	10	9.37340976592122	11.9176524125259
 200	9.84999999999997e-08	0.24127079039238	-0.24127079039238
	10	9.38475948449943	12.1766909501937
 201	9.89999999999997e-08	0.236412176242918	-0.236412176242918
	10	9.39714895058056	12.4307776345741
 202	9.94999999999997e-08	0.231156145636792	-0.231156145636792
	10	9.41055182862618	12.6794841887655
 203	9.99999999999997e-08	0.225513685112882	-0.225513685112882
	10	9.42494010296215	12.9223936732068
 204	1.005e-07	0.219496417853229	-0.219496417853229
	10	9.44028413447427	13.1591011747845
 205	1.01e-07	0.213116580418148	-0.213116580418148
	10	9.45655271993372	13.3892144717374
 206	1.015e-07	0.197939060525939	-0.197939060525939
	5.00000000000267	4.49525539566153	13.599787940382
 207	1.02e-07	0.178469561105882	-0.178469561105882
	2.69118061169138e-12	-0.455097380817308	13.8000052923138
 208	1.025e-07	0.15453619749256	-0.15453619749256
	0	-0.394067303606029	13.9644055024123
 209	1.03e-07	0.130527693912317	-0.130527693912318
	0	-0.33284561947641	14.1160352318829
 210	1.035e-07	0.106390526048458	-0.106390526048458
	0	-0.271295841423567	14.2420555616493
 211	1.04e-07	0.0821679278690547	-0.0821679278690547
	0	-0.20952821606609	14.3423526116054
 212	1.045e-07	0.0579031004342331	-0.0579031004342331
	0	-0.147652906107294	14.4168584777242
 213	1.05e-07	0.0336391356354439	-0.0336391356354439
	0	-0.0857797958703819	14.4655511564847
 214	1.055e-07	0.0094189404523476	-0.0094189404523476
	0	-0.0240182981534864	14.4884543884463
 215	1.06e-07	-0.0147148381409474	0.0147148381409474
	0	0.0375228372594157	14.4856374215906
 216	1.065e-07	-0.0387198874902521	0.0387198874902521
	0	0.0987357131001428	14.457214695191
 217	1.07e-07	-0.0625543026681622	0.0625543026681622
	0	0.159513471803814	14.4033454451068
 218	1.075e-07	-0.0861766588474633	0.0861766588474633
	0	0.219750480061031	14.3242332315346
 219	1.08e-07	-0.109546082517483	0.109546082517483
	0	0.279342510419581	14.2201253903831
 220	1.085e-07	-0.132622321422367	0.132622321422367
	0	0.338186919627036	14.091312409564
 221	1.09e-07	-0.155365813103037	0.155365813103037
	0	0.396182823412744	13.938127231625
 222	1.095e-07	-0.177737751927549	0.177737751927549
	0	0.45323126741525	13.7609444842683
 223	1.1e-07	-0.199700154497753	0.199700154497753
	0	0.509235393969269	13.560179640425
 224	1.105e-07	-0.221215923323479	0.221215923323479
	0	0.564100604474871	13.3362881096691
 225	1.11e-07	-0.242248908659032	0.242248908659032
	0	0.617734717080532	13.0897642628698
 226	1.115e-07	-0.262763968400441	0.262763968400441
	0	0.670048119421125	12.8211403920935
 227	1.12e-07	-0.282727025945803	0.282727025945803
	0	0.720953916161797	12.5309856078668
 228	1.125e-07	-0.302105125925051	0.302105125925051
	0	0.77036807110888	12.2199046760206
 229	1.13e-07	-0.32086648770967	0.32086648770967
	0	0.81820954365966	11.8885367964277
 230	1.135e-07	-0.338980556617164	0.338980556617164
	0	0.864400419373767	11.5375543260411
 231	1.14e-07	-0.356418052729532	0.356418052729532
	0	0.908866034460308	11.167661448729
 232	1.145e-07	-0.373151017249588	0.373151017249588
	0	0.95153509398645	10.7795927944848
 233	1.15e-07	-0.389152856323594	0.389152856323594
	0	0.992339783625164	10.3741120106693
 234	1.155e-07	-0.404398382263513	0.404398382263513
	0	1.03121587477196	9.95201028801653
 235	1.16e-07	-0.418863852107038	0.418863852107038
	0	1.06810282287295	9.51410484420241
 236	1.165e-07	-0.432527003458532	0.432527003458532
	0	1.10294385881926	9.06123736783775
 237	1.17e-07	-0.445367087559065	0.445367087559065
	0	1.13568607327561	8.59427242580712
 238	1.175e-07	-0.457364899538866	0.457364899538866
	0	1.16628049382411	8.11409583692524
 239	1.18e-07	-0.468502805810667	0.468502805810667
	0	1.1946821548172	7.62161301493081
 240	1.185e-07	-0.478764768567668	0.478764768567668
	0	1.22085015984755	7.11774728387851
 241	1.19e-07	-0.488136367355119	0.488136367355119
	0	1.24474773675555	6.60343816902596
 242	1.195e-07	-0.496604817689831	0.496604817689831
	0	1.26634228510907	6.07963966634247
 243	1.2e-07	-0.504158986707228	0.504158986707228
	0	1.28560541610343	5.54731849379083
 244	1.205e-07	-0.510789405820954	0.510789405820954
	0	1.30251298484343	5.00745232755242
 245	1.21e-07	-0.516488280385324	0.516488280385324
	0	1.31704511498258	4.46102802637886
 246	1.215e-07	-0.521249496356308	0.521249496356308
	0	1.32918621570859	3.90903984726095
 247	1.22e-07	-0.525068623952041	0.525068623952041
	0	1.3389249910777	3.35248765560756
 248	1.225e-07	-0.527942918319138	0.527942918319138
	0	1.3462544417138	2.79237513312288
 249	1.23e-07	-0.529871317216399	0.529871317216399
	0	1.35117185890182	2.22970798656142
 250	1.235e-07	-0.530854435732679	0.530854435732679
	0	1.35367881111833	1.66549216052466
 251	1.24e-07	-0.530894558060893	0.530894558060893
	0	1.35378112305528	1.10073205744296
 252	1.245e-07	-0.529995626355224	0.529995626355224
	0	1.35148884720582	0.536428767859906
 253	1.25e-07	-0.528163226703669	0.528163226703669
	0	1.34681622809436	-0.0264216858948365
 254	1.255e-07	-0.525404572252987	0.525404572252987
	0	1.33978165924512	-0.586830089595198
 255	1.26e-07	-0.521728483528021	0.521728483528021
	0	1.33040763299645	-1.14381575756383
 256	1.265e-07	-0.517145365992148	0.517145365992148
	0	1.31872068327998	-1.69640823071287
 257	1.27e-07	-0.511667184900256	0.511667184900256
	0	1.30475132149565	-2.24364894927267
 258	1.275e-07	-0.505307437500276	0.505307437500276
	0	1.2885339656257	-2.78459289735807
 259	1.28e-07	-0.498081122643684	0.498081122643684
	0	1.27010686274139	-3.31831021658359
 260	1.285e-07	-0.490004707869764	0.490004707869764
	0	1.2495120050679	-3.84388778600565
 261	1.29e-07	-0.481096094032583	0.481096094032583
	0	1.22679503978309	-4.36043076574095
 262	1.295e-07	-0.471374577543698	0.471374577543698
	0	1.20200517273643	-4.86706410168579
 263	1.3e-07	-0.460860810307509	0.460860810307509
	0	1.17519506628415	-5.3629339888407
 264	1.305e-07	-0.449576757429945	0.449576757429945
	0	1.14642073144636	-5.84720929082872
 265	1.31e-07	-0.437545652784727	0.437545652784727
	0	1.11574141460105	-6.31908291328335
 266	1.315e-07	-0.424791952524935	0.424791952524935
	0	1.08321947893858	-6.7777731288736
 267	1.32e-07	-0.411341286630817	0.411341286630817
	0	1.04892028090858	-7.2225248518288
 268	1.325e-07	-0.39722040858789	0.39722040858789
	0	1.01291204189912	-7.65261085992386
 269	1.33e-07	-0.382457143292285	0.382457143292285
	0	0.975265715395327	-8.06733296198779
 270	1.335e-07	-0.367080333283016	0.367080333283016
	0	0.93605484987169	-8.46602310910232
 271	1.34e-07	-0.351119783403361	0.351119783403361
	0	0.895355447678572	-8.8480444477653
 272	1.345e-07	-0.334606203995936	0.334606203995936
	0	0.853245820189636	-9.21279231340323
 273	1.35e-07	-0.317571152738125	0.317571152738125
	0	0.809806439482219	-9.55969516272987
 274	1.355e-07	-0.300046975226557	0.300046975226557
	0	0.765119786827719	-9.88821544356215
 275	1.36e-07	-0.282066744420988	0.282066744420988
	0	0.71927019827352	-10.1978504008215
 276	1.365e-07	-0.263664199059573	0.263664199059573
	0	0.67234370760191	-10.4881328175665
 277	1.37e-07	-0.244873681158782	0.244873681158782
	0	0.624427886954894	-10.7586316900231
 278	1.375e-07	-0.225730072712421	0.225730072712421
	0	0.575611685416674	-11.0089528356992
 279	1.38e-07	-0.206268731705086	0.206268731705086
	0	0.525985265847969	-11.2387394337937
 280	1.385e-07	-0.186525427556141	0.186525427556141
	0	0.47563984026816	-11.4476724972305
 281	1.39e-07	-0.166536276110812	0.166536276110812
	0	0.424667504082571	-11.6354712757767
 282	1.395e-07	-0.146337674295279	0.146337674295279
	0	0.373161069452962	-11.8018935898225
 283	1.4e-07	-0.125966234552777	0.125966234552777
	0	0.32121389810958	-11.9467360945289
 284	1.405e-07	-0.105458719177567	0.105458719177567
	0	0.268919733902795	-12.0698344741728
 285	1.41e-07	-0.0848519746633605	0.0848519746633605
	0	0.216372535391569	-12.1710635666413
 286	1.415e-07	-0.0641828661822259	0.0641828661822259
	0	0.163666308764676	-12.2503374181549
 287	1.42e-07	-0.0434882123093008	0.0434882123093008
	0	0.110894941388717	-12.3076092684164
 288	1.425e-07	-0.0228047201077049	0.0228047201077049
	0	0.0581520362746475	-12.3428714665105
 289	1.43e-07	-0.00216892068691958	0.00216892068691958
	0	0.00553074775164493	-12.356155317997
 290	1.435e-07	0.0183828946534162	-0.0183828946534162
	0	-0.0468763813662113	-12.3475308637596
 291	1.44e-07	0.0388147375838542	-0.0388147375838542
	0	-0.0989775808388282	-12.3171065912929
 292	1.445e-07	0.0590909851008934	-0.0590909851008934
	0	-0.150682012007278	-12.2650290792266
 293	1.45e-07	0.0791764409712925	-0.0791764409712925
	0	-0.201899924476796	-12.1914825759967
 294	1.455e-07	0.0990363961601537	-0.0990363961601537
	0	-0.252542810208392	-12.0966885136927
 295	1.46e-07	0.118636688140235	-0.118636688140235
	0	-0.3025235547576	-11.9809049582138
 296	1.465e-07	0.137943758982368	-0.137943758982368
	0	-0.351756585405038	-11.8444259969783
 297	1.47e-07	0.156924712129425	-0.156924712129425
	0	-0.400158015930033	-11.6875810655359
 298	1.475e-07	0.175547367759053	-0.175547367759053
	0	-0.447645787785584	-11.5107342145314
 299	1.48e-07	0.193780316643248	-0.193780316643248
	0	-0.494139807440283	-11.3142833185727
 300	1.485e-07	0.211592972415939	-0.211592972415939
	0	-0.539562079660645	-11.0986592286476
 301	1.49e-07	0.228955622162902	-0.228955622162902
	0	-0.5838368365154	-10.8643248698291
 302	1.495e-07	0.24583947525169	-0.24583947525169
	0	-0.62689066189181	-10.6117742860979
 303	1.5e-07	0.262216710322711	-0.262216710322711
	0	-0.668652611322912	-10.3415316341966
 304	1.505e-07	0.278060520366165	-0.278060520366165
	0	-0.709054326933719	-10.054150128511
 305	1.51e-07	0.293345155813286	-0.293345155813286
	0	-0.748030147323879	-9.75021093905387
 306	1.515e-07	0.308045965574121	-0.308045965574121
	0	-0.785517212214007	-9.43032204469886
 307	1.52e-07	0.322139435958005	-0.322139435958005
	0	-0.821455561692912	-9.0951170438839
 308	1.525e-07	0.335603227416931	-0.335603227416931
	0	-0.855788229913175	-8.74525392506744
 309	1.53e-07	0.348416209056082	-0.348416209056082
	0	-0.888461333093009	-8.38141379928391
 310	1.535e-07	0.360558490859998	-0.360558490859998
	0	-0.919424151692996	-8.00429959720088
 311	1.54e-07	0.372011453587123	-0.372011453587123
	0	-0.948629206647164	-7.61463473313326
 312	1.545e-07	0.382757776289762	-0.382757776289762
	0	-0.976032329538893	-7.21316173851788
 313	1.55e-07	0.392781461420907	-0.392781461420907
	0	-1.00159272662331	-6.80064086739518
 314	1.555e-07	0.402067857493788	-0.402067857493788
	0	-1.02527303660916	-6.3778486764831
 315	1.56e-07	0.410603679264492	-0.410603679264492
	0	-1.04703938212445	-5.94557658246272
 316	1.565e-07	0.418377025412503	-0.418377025412503
	0	-1.06686141480188	-5.50462939912389
 317	1.57e-07	0.425377393698539	-0.425377393698539
	0	-1.08471235393128	-5.05582385704354